   5   5   1   0
  0.1222957E+02  0.3939675E-09  0.3939675E-09  0.3939675E-09  0.5000000E-15
  1.000000000000000E-004
  CAR 
 unknown system                          
     14.82298301    -26.37795463  301      8.47484268      1.00000000
    -26.378  0.0000E+00  0.0000E+00  0.0000E+00  0.0000E+00
    -26.241  0.0000E+00  0.0000E+00  0.0000E+00  0.0000E+00
    -26.103 -0.1169E-34 -0.3074E-36 -0.1606E-35 -0.4222E-37
    -25.966 -0.2594E-29 -0.1053E-29 -0.3562E-30 -0.1447E-30
    -25.829 -0.9489E-25 -0.4165E-25 -0.1303E-25 -0.5720E-26
    -25.691 -0.1365E-20 -0.6473E-21 -0.1875E-21 -0.8890E-22
    -25.554 -0.7653E-17 -0.3959E-17 -0.1051E-17 -0.5438E-18
    -25.417 -0.1665E-13 -0.9220E-14 -0.2288E-14 -0.1267E-14
    -25.279 -0.1449E-10 -0.8668E-11 -0.1992E-11 -0.1192E-11
    -25.142 -0.4938E-08 -0.3191E-08 -0.6801E-09 -0.4395E-09
    -25.005 -0.6525E-06 -0.4561E-06 -0.9029E-07 -0.6308E-07
    -24.867 -0.3264E-04 -0.2473E-04 -0.4573E-05 -0.3460E-05
    -24.730 -0.5774E-03 -0.4784E-03 -0.8387E-04 -0.6917E-04
    -24.593 -0.2724E-02 -0.2586E-02 -0.4579E-03 -0.4243E-03
    -24.455  0.5931E-02  0.4035E-02  0.3566E-03  0.1299E-03
    -24.318  0.4721E-01  0.4364E-01  0.6841E-02  0.6123E-02
    -24.181  0.5906E-01  0.6101E-01  0.1495E-01  0.1450E-01
    -24.043  0.1638E-01  0.1959E-01  0.1720E-01  0.1719E-01
    -23.906 -0.2662E-02 -0.2390E-02  0.1684E-01  0.1686E-01
    -23.769 -0.1134E-02 -0.1310E-02  0.1668E-01  0.1668E-01
    -23.631 -0.9148E-04 -0.1163E-03  0.1667E-01  0.1667E-01
    -23.494 -0.2470E-05 -0.3402E-05  0.1667E-01  0.1667E-01
    -23.357 -0.2466E-07 -0.3662E-07  0.1667E-01  0.1667E-01
    -23.219 -0.9414E-10 -0.1504E-09  0.1667E-01  0.1667E-01
    -23.082 -0.1393E-12 -0.2392E-12  0.1667E-01  0.1667E-01
    -22.945 -0.8037E-16 -0.1498E-15  0.1667E-01  0.1667E-01
    -22.807  0.0000E+00  0.0000E+00  0.1667E-01  0.1667E-01
    -22.670  0.0000E+00  0.0000E+00  0.1667E-01  0.1667E-01
    -22.533  0.0000E+00  0.0000E+00  0.1667E-01  0.1667E-01
    -22.395  0.0000E+00  0.0000E+00  0.1667E-01  0.1667E-01
    -22.258  0.0000E+00  0.0000E+00  0.1667E-01  0.1667E-01
    -22.121  0.0000E+00  0.0000E+00  0.1667E-01  0.1667E-01
    -21.983  0.0000E+00  0.0000E+00  0.1667E-01  0.1667E-01
    -21.846  0.0000E+00  0.0000E+00  0.1667E-01  0.1667E-01
    -21.709  0.0000E+00  0.0000E+00  0.1667E-01  0.1667E-01
    -21.571  0.0000E+00  0.0000E+00  0.1667E-01  0.1667E-01
    -21.434  0.0000E+00  0.0000E+00  0.1667E-01  0.1667E-01
    -21.297  0.0000E+00  0.0000E+00  0.1667E-01  0.1667E-01
    -21.159  0.0000E+00  0.0000E+00  0.1667E-01  0.1667E-01
    -21.022  0.0000E+00  0.0000E+00  0.1667E-01  0.1667E-01
    -20.884  0.0000E+00  0.0000E+00  0.1667E-01  0.1667E-01
    -20.747  0.0000E+00  0.0000E+00  0.1667E-01  0.1667E-01
    -20.610  0.0000E+00  0.0000E+00  0.1667E-01  0.1667E-01
    -20.472  0.0000E+00  0.0000E+00  0.1667E-01  0.1667E-01
    -20.335  0.0000E+00  0.0000E+00  0.1667E-01  0.1667E-01
    -20.198  0.0000E+00  0.0000E+00  0.1667E-01  0.1667E-01
    -20.060  0.0000E+00  0.0000E+00  0.1667E-01  0.1667E-01
    -19.923  0.0000E+00  0.0000E+00  0.1667E-01  0.1667E-01
    -19.786  0.0000E+00  0.0000E+00  0.1667E-01  0.1667E-01
    -19.648  0.0000E+00  0.0000E+00  0.1667E-01  0.1667E-01
    -19.511  0.0000E+00  0.0000E+00  0.1667E-01  0.1667E-01
    -19.374  0.0000E+00  0.0000E+00  0.1667E-01  0.1667E-01
    -19.236  0.0000E+00  0.0000E+00  0.1667E-01  0.1667E-01
    -19.099  0.0000E+00  0.0000E+00  0.1667E-01  0.1667E-01
    -18.962  0.0000E+00  0.0000E+00  0.1667E-01  0.1667E-01
    -18.824  0.0000E+00  0.0000E+00  0.1667E-01  0.1667E-01
    -18.687  0.0000E+00  0.0000E+00  0.1667E-01  0.1667E-01
    -18.550  0.0000E+00  0.0000E+00  0.1667E-01  0.1667E-01
    -18.412  0.0000E+00  0.0000E+00  0.1667E-01  0.1667E-01
    -18.275  0.0000E+00  0.0000E+00  0.1667E-01  0.1667E-01
    -18.138  0.0000E+00  0.0000E+00  0.1667E-01  0.1667E-01
    -18.000  0.0000E+00  0.0000E+00  0.1667E-01  0.1667E-01
    -17.863  0.0000E+00  0.0000E+00  0.1667E-01  0.1667E-01
    -17.726  0.0000E+00  0.0000E+00  0.1667E-01  0.1667E-01
    -17.588  0.0000E+00  0.0000E+00  0.1667E-01  0.1667E-01
    -17.451  0.0000E+00  0.0000E+00  0.1667E-01  0.1667E-01
    -17.314  0.0000E+00  0.0000E+00  0.1667E-01  0.1667E-01
    -17.176  0.0000E+00  0.0000E+00  0.1667E-01  0.1667E-01
    -17.039  0.0000E+00  0.0000E+00  0.1667E-01  0.1667E-01
    -16.902  0.0000E+00  0.0000E+00  0.1667E-01  0.1667E-01
    -16.764  0.0000E+00  0.0000E+00  0.1667E-01  0.1667E-01
    -16.627  0.0000E+00  0.0000E+00  0.1667E-01  0.1667E-01
    -16.490  0.0000E+00  0.0000E+00  0.1667E-01  0.1667E-01
    -16.352  0.0000E+00  0.0000E+00  0.1667E-01  0.1667E-01
    -16.215  0.0000E+00  0.0000E+00  0.1667E-01  0.1667E-01
    -16.078  0.0000E+00  0.0000E+00  0.1667E-01  0.1667E-01
    -15.940  0.0000E+00  0.0000E+00  0.1667E-01  0.1667E-01
    -15.803  0.0000E+00  0.0000E+00  0.1667E-01  0.1667E-01
    -15.666  0.0000E+00  0.0000E+00  0.1667E-01  0.1667E-01
    -15.528  0.0000E+00  0.0000E+00  0.1667E-01  0.1667E-01
    -15.391  0.0000E+00  0.0000E+00  0.1667E-01  0.1667E-01
    -15.254  0.0000E+00  0.0000E+00  0.1667E-01  0.1667E-01
    -15.116  0.0000E+00  0.0000E+00  0.1667E-01  0.1667E-01
    -14.979  0.0000E+00  0.0000E+00  0.1667E-01  0.1667E-01
    -14.842  0.0000E+00  0.0000E+00  0.1667E-01  0.1667E-01
    -14.704  0.0000E+00  0.0000E+00  0.1667E-01  0.1667E-01
    -14.567  0.0000E+00  0.0000E+00  0.1667E-01  0.1667E-01
    -14.430  0.0000E+00  0.0000E+00  0.1667E-01  0.1667E-01
    -14.292  0.0000E+00  0.0000E+00  0.1667E-01  0.1667E-01
    -14.155  0.0000E+00  0.0000E+00  0.1667E-01  0.1667E-01
    -14.018  0.0000E+00  0.0000E+00  0.1667E-01  0.1667E-01
    -13.880  0.0000E+00  0.0000E+00  0.1667E-01  0.1667E-01
    -13.743  0.0000E+00  0.0000E+00  0.1667E-01  0.1667E-01
    -13.606  0.0000E+00  0.0000E+00  0.1667E-01  0.1667E-01
    -13.468  0.0000E+00  0.0000E+00  0.1667E-01  0.1667E-01
    -13.331 -0.1077E-35  0.0000E+00  0.1667E-01  0.1667E-01
    -13.194 -0.1257E-30 -0.6846E-33  0.1667E-01  0.1667E-01
    -13.056 -0.4527E-26 -0.3837E-28  0.1667E-01  0.1667E-01
    -12.919 -0.6421E-22 -0.8457E-24  0.1667E-01  0.1667E-01
    -12.782 -0.3596E-18 -0.7352E-20  0.1667E-01  0.1667E-01
    -12.644 -0.7699E-15 -0.2445E-16  0.1667E-01  0.1667E-01
    -12.507 -0.6696E-12 -0.3303E-13  0.1667E-01  0.1667E-01
    -12.370 -0.2300E-09 -0.1759E-10  0.1667E-01  0.1667E-01
    -12.232 -0.3108E-07 -0.3691E-08  0.1667E-01  0.1667E-01
    -12.095 -0.1637E-05 -0.3035E-06  0.1667E-01  0.1667E-01
    -11.958 -0.3280E-04 -0.9641E-05  0.1666E-01  0.1667E-01
    -11.820 -0.2289E-03 -0.1133E-03  0.1663E-01  0.1665E-01
    -11.683 -0.2746E-03 -0.4019E-03  0.1659E-01  0.1659E-01
    -11.546  0.2303E-02  0.5292E-03  0.1691E-01  0.1667E-01
    -11.408  0.1067E-01  0.6484E-02  0.1837E-01  0.1756E-01
    -11.271  0.2391E-01  0.1951E-01  0.2166E-01  0.2024E-01
    -11.134  0.2876E-01  0.2986E-01  0.2561E-01  0.2434E-01
    -10.996  0.1971E-01  0.2404E-01  0.2831E-01  0.2764E-01
    -10.859  0.1178E-01  0.1398E-01  0.2993E-01  0.2956E-01
    -10.722  0.8657E-02  0.9598E-02  0.3112E-01  0.3088E-01
    -10.584  0.1033E-01  0.1030E-01  0.3254E-01  0.3229E-01
    -10.447  0.2137E-01  0.1904E-01  0.3548E-01  0.3491E-01
    -10.310  0.3726E-01  0.3298E-01  0.4059E-01  0.3944E-01
    -10.172  0.4842E-01  0.4085E-01  0.4724E-01  0.4505E-01
    -10.035  0.6273E-01  0.4538E-01  0.5586E-01  0.5128E-01
     -9.898  0.5995E-01  0.5371E-01  0.6409E-01  0.5866E-01
     -9.760  0.2167E-01  0.4519E-01  0.6707E-01  0.6486E-01
     -9.623 -0.1198E-02  0.1532E-01  0.6690E-01  0.6697E-01
     -9.486 -0.1530E-02 -0.9139E-03  0.6669E-01  0.6684E-01
     -9.348 -0.1850E-03 -0.1121E-02  0.6667E-01  0.6669E-01
     -9.211 -0.7239E-05 -0.1396E-03  0.6667E-01  0.6667E-01
     -9.074 -0.1451E-06 -0.5707E-05  0.6667E-01  0.6667E-01
     -8.936 -0.1877E-05 -0.9145E-06  0.6667E-01  0.6667E-01
     -8.799 -0.3308E-04 -0.1859E-04  0.6666E-01  0.6666E-01
     -8.662 -0.2008E-03 -0.1503E-03  0.6663E-01  0.6664E-01
     -8.524 -0.1123E-03 -0.2567E-03  0.6662E-01  0.6661E-01
     -8.387  0.2173E-02  0.1346E-02  0.6692E-01  0.6679E-01
     -8.250  0.7076E-02  0.5855E-02  0.6789E-01  0.6760E-01
     -8.112  0.1631E-01  0.1387E-01  0.7013E-01  0.6950E-01
     -7.975  0.4317E-01  0.3757E-01  0.7606E-01  0.7466E-01
     -7.838  0.7377E-01  0.7126E-01  0.8619E-01  0.8445E-01
     -7.700  0.6976E-01  0.7332E-01  0.9577E-01  0.9452E-01
     -7.563  0.5583E-01  0.5835E-01  0.1034E+00  0.1025E+00
     -7.426  0.5002E-01  0.5036E-01  0.1103E+00  0.1094E+00
     -7.288  0.3446E-01  0.3656E-01  0.1150E+00  0.1145E+00
     -7.151  0.1189E-01  0.1484E-01  0.1167E+00  0.1165E+00
     -7.014  0.8561E-03  0.2092E-02  0.1168E+00  0.1168E+00
     -6.876 -0.6706E-03 -0.6063E-03  0.1167E+00  0.1167E+00
     -6.739 -0.2027E-03 -0.2806E-03  0.1167E+00  0.1167E+00
     -6.602 -0.1980E-04 -0.3509E-04  0.1167E+00  0.1167E+00
     -6.464 -0.7331E-06 -0.1618E-05  0.1167E+00  0.1167E+00
     -6.327 -0.1057E-07 -0.2884E-07  0.1167E+00  0.1167E+00
     -6.189 -0.5998E-10 -0.2015E-09  0.1167E+00  0.1167E+00
     -6.052 -0.1343E-12 -0.5550E-12  0.1167E+00  0.1167E+00
     -5.915 -0.1184E-15 -0.6042E-15  0.1167E+00  0.1167E+00
     -5.777  0.0000E+00 -0.1403E-18  0.1167E+00  0.1167E+00
     -5.640  0.0000E+00  0.0000E+00  0.1167E+00  0.1167E+00
     -5.503  0.0000E+00  0.0000E+00  0.1167E+00  0.1167E+00
     -5.365  0.0000E+00  0.0000E+00  0.1167E+00  0.1167E+00
     -5.228  0.0000E+00  0.0000E+00  0.1167E+00  0.1167E+00
     -5.091  0.0000E+00  0.0000E+00  0.1167E+00  0.1167E+00
     -4.953  0.0000E+00  0.0000E+00  0.1167E+00  0.1167E+00
     -4.816  0.0000E+00  0.0000E+00  0.1167E+00  0.1167E+00
     -4.679  0.0000E+00  0.0000E+00  0.1167E+00  0.1167E+00
     -4.541  0.0000E+00  0.0000E+00  0.1167E+00  0.1167E+00
     -4.404  0.0000E+00  0.0000E+00  0.1167E+00  0.1167E+00
     -4.267  0.0000E+00  0.0000E+00  0.1167E+00  0.1167E+00
     -4.129  0.0000E+00  0.0000E+00  0.1167E+00  0.1167E+00
     -3.992  0.0000E+00  0.0000E+00  0.1167E+00  0.1167E+00
     -3.855  0.0000E+00  0.0000E+00  0.1167E+00  0.1167E+00
     -3.717  0.0000E+00  0.0000E+00  0.1167E+00  0.1167E+00
     -3.580  0.0000E+00  0.0000E+00  0.1167E+00  0.1167E+00
     -3.443  0.0000E+00  0.0000E+00  0.1167E+00  0.1167E+00
     -3.305  0.0000E+00  0.0000E+00  0.1167E+00  0.1167E+00
     -3.168  0.0000E+00  0.0000E+00  0.1167E+00  0.1167E+00
     -3.031  0.0000E+00  0.0000E+00  0.1167E+00  0.1167E+00
     -2.893  0.0000E+00  0.0000E+00  0.1167E+00  0.1167E+00
     -2.756  0.0000E+00  0.0000E+00  0.1167E+00  0.1167E+00
     -2.619  0.0000E+00  0.0000E+00  0.1167E+00  0.1167E+00
     -2.481  0.0000E+00  0.0000E+00  0.1167E+00  0.1167E+00
     -2.344  0.0000E+00  0.0000E+00  0.1167E+00  0.1167E+00
     -2.207  0.0000E+00  0.0000E+00  0.1167E+00  0.1167E+00
     -2.069  0.0000E+00  0.0000E+00  0.1167E+00  0.1167E+00
     -1.932  0.0000E+00  0.0000E+00  0.1167E+00  0.1167E+00
     -1.795  0.0000E+00  0.0000E+00  0.1167E+00  0.1167E+00
     -1.657  0.0000E+00  0.0000E+00  0.1167E+00  0.1167E+00
     -1.520  0.0000E+00  0.0000E+00  0.1167E+00  0.1167E+00
     -1.383  0.0000E+00  0.0000E+00  0.1167E+00  0.1167E+00
     -1.245  0.0000E+00  0.0000E+00  0.1167E+00  0.1167E+00
     -1.108  0.0000E+00  0.0000E+00  0.1167E+00  0.1167E+00
     -0.971 -0.2361E-34  0.0000E+00  0.1167E+00  0.1167E+00
     -0.833 -0.1513E-29  0.0000E+00  0.1167E+00  0.1167E+00
     -0.696 -0.3658E-25 -0.2790E-34  0.1167E+00  0.1167E+00
     -0.559 -0.3455E-21 -0.1748E-29  0.1167E+00  0.1167E+00
     -0.421 -0.1249E-17 -0.4155E-25  0.1167E+00  0.1167E+00
     -0.284 -0.1802E-14 -0.3855E-21  0.1167E+00  0.1167E+00
     -0.147 -0.1036E-11 -0.1367E-17  0.1167E+00  0.1167E+00
     -0.009 -0.2385E-09 -0.1934E-14  0.1167E+00  0.1167E+00
      0.128 -0.2227E-07 -0.1089E-11  0.1167E+00  0.1167E+00
      0.265 -0.8630E-06 -0.2447E-09  0.1167E+00  0.1167E+00
      0.403 -0.1454E-04 -0.2203E-07  0.1167E+00  0.1167E+00
      0.540 -0.1146E-03 -0.7892E-06  0.1166E+00  0.1167E+00
      0.677 -0.3975E-03 -0.1074E-04  0.1166E+00  0.1167E+00
      0.815  0.3135E-03 -0.4484E-04  0.1166E+00  0.1167E+00
      0.952  0.7393E-02  0.4973E-04  0.1177E+00  0.1167E+00
      1.089  0.2358E-01  0.6560E-03  0.1209E+00  0.1168E+00
      1.227  0.3590E-01  0.1692E-02  0.1258E+00  0.1170E+00
      1.364  0.3666E-01  0.2789E-02  0.1309E+00  0.1174E+00
      1.501  0.3622E-01  0.4170E-02  0.1358E+00  0.1179E+00
      1.639  0.4049E-01  0.6878E-02  0.1414E+00  0.1189E+00
      1.776  0.3334E-01  0.1195E-01  0.1460E+00  0.1205E+00
      1.913  0.2615E-01  0.1696E-01  0.1496E+00  0.1229E+00
      2.051  0.4649E-01  0.1858E-01  0.1559E+00  0.1254E+00
      2.188  0.6589E-01  0.1811E-01  0.1650E+00  0.1279E+00
      2.325  0.6693E-01  0.1695E-01  0.1742E+00  0.1302E+00
      2.463  0.6222E-01  0.1579E-01  0.1827E+00  0.1324E+00
      2.600  0.5231E-01  0.1370E-01  0.1899E+00  0.1343E+00
      2.737  0.3945E-01  0.1207E-01  0.1953E+00  0.1359E+00
      2.875  0.2842E-01  0.1813E-01  0.1992E+00  0.1384E+00
      3.012  0.2392E-01  0.3171E-01  0.2025E+00  0.1428E+00
      3.149  0.1686E-01  0.5788E-01  0.2048E+00  0.1507E+00
      3.287  0.8213E-02  0.8977E-01  0.2060E+00  0.1631E+00
      3.424  0.5172E-02  0.8121E-01  0.2067E+00  0.1742E+00
      3.561  0.1783E-01  0.4566E-01  0.2091E+00  0.1805E+00
      3.699  0.3045E-01  0.4195E-01  0.2133E+00  0.1862E+00
      3.836  0.1779E-01  0.4120E-01  0.2158E+00  0.1919E+00
      3.973  0.6606E-02  0.3233E-01  0.2167E+00  0.1963E+00
      4.111  0.4872E-02  0.2546E-01  0.2173E+00  0.1998E+00
      4.248  0.8070E-02  0.2162E-01  0.2184E+00  0.2028E+00
      4.385  0.1450E-01  0.2267E-01  0.2204E+00  0.2059E+00
      4.523  0.1823E-01  0.2494E-01  0.2229E+00  0.2093E+00
      4.660  0.2207E-01  0.2274E-01  0.2260E+00  0.2125E+00
      4.797  0.3689E-01  0.2109E-01  0.2310E+00  0.2154E+00
      4.935  0.4983E-01  0.2606E-01  0.2379E+00  0.2189E+00
      5.072  0.5060E-01  0.3651E-01  0.2448E+00  0.2240E+00
      5.209  0.4467E-01  0.4485E-01  0.2510E+00  0.2301E+00
      5.347  0.3978E-01  0.4872E-01  0.2564E+00  0.2368E+00
      5.484  0.4546E-01  0.4498E-01  0.2627E+00  0.2430E+00
      5.621  0.5397E-01  0.4279E-01  0.2701E+00  0.2489E+00
      5.759  0.6026E-01  0.4234E-01  0.2784E+00  0.2547E+00
      5.896  0.7075E-01  0.3384E-01  0.2881E+00  0.2593E+00
      6.033  0.8031E-01  0.2578E-01  0.2991E+00  0.2629E+00
      6.171  0.7445E-01  0.1835E-01  0.3093E+00  0.2654E+00
      6.308  0.4804E-01  0.8886E-02  0.3159E+00  0.2666E+00
      6.445  0.1594E-01  0.1167E-02  0.3181E+00  0.2668E+00
      6.583  0.2822E-02 -0.5423E-03  0.3185E+00  0.2667E+00
      6.720  0.5616E-02 -0.1482E-03  0.3193E+00  0.2667E+00
      6.857  0.8808E-02 -0.1109E-04  0.3205E+00  0.2667E+00
      6.995  0.8658E-02 -0.3026E-06  0.3217E+00  0.2667E+00
      7.132  0.9379E-02 -0.3192E-08  0.3230E+00  0.2667E+00
      7.269  0.1102E-01 -0.1320E-10  0.3245E+00  0.2667E+00
      7.407  0.1220E-01 -0.2142E-13  0.3261E+00  0.2667E+00
      7.544  0.6775E-02 -0.1324E-16  0.3271E+00  0.2667E+00
      7.681  0.2906E-02  0.0000E+00  0.3275E+00  0.2667E+00
      7.819  0.4707E-02  0.0000E+00  0.3281E+00  0.2667E+00
      7.956  0.5630E-02 -0.2794E-35  0.3289E+00  0.2667E+00
      8.093  0.8792E-02 -0.2158E-30  0.3301E+00  0.2667E+00
      8.231  0.1132E-01 -0.6436E-26  0.3317E+00  0.2667E+00
      8.368  0.8610E-02 -0.7433E-22  0.3328E+00  0.2667E+00
      8.506  0.4456E-02 -0.3250E-18  0.3334E+00  0.2667E+00
      8.643  0.5514E-02 -0.5584E-15  0.3342E+00  0.2667E+00
      8.780  0.9076E-02 -0.3773E-12  0.3355E+00  0.2667E+00
      8.918  0.9789E-02 -0.1016E-09  0.3368E+00  0.2667E+00
      9.055  0.1071E-01 -0.1135E-07  0.3383E+00  0.2667E+00
      9.192  0.9300E-02 -0.5629E-06  0.3395E+00  0.2667E+00
      9.330  0.6168E-02 -0.1327E-04  0.3404E+00  0.2667E+00
      9.467  0.6734E-02 -0.1496E-03  0.3413E+00  0.2666E+00
      9.604  0.9939E-02 -0.7603E-03  0.3427E+00  0.2665E+00
      9.742  0.7640E-02 -0.1425E-02  0.3437E+00  0.2663E+00
      9.879  0.3237E-02  0.5139E-02  0.3442E+00  0.2670E+00
     10.016  0.1880E-01  0.4963E-01  0.3468E+00  0.2739E+00
     10.154  0.8279E-01  0.1339E+00  0.3581E+00  0.2923E+00
     10.291  0.1815E+00  0.1892E+00  0.3831E+00  0.3182E+00
     10.428  0.2541E+00  0.2239E+00  0.4179E+00  0.3490E+00
     10.566  0.1879E+00  0.1811E+00  0.4438E+00  0.3739E+00
     10.703  0.5273E-01  0.7850E-01  0.4510E+00  0.3846E+00
     10.840 -0.2741E-02  0.2101E-01  0.4506E+00  0.3875E+00
     10.978 -0.3830E-02  0.1556E-01  0.4501E+00  0.3897E+00
     11.115 -0.6294E-03  0.2313E-01  0.4500E+00  0.3928E+00
     11.252 -0.3945E-04  0.2997E-01  0.4500E+00  0.3970E+00
     11.390 -0.1038E-05  0.3420E-01  0.4500E+00  0.4017E+00
     11.527 -0.1160E-07  0.4280E-01  0.4500E+00  0.4075E+00
     11.664 -0.5450E-10  0.6182E-01  0.4500E+00  0.4160E+00
     11.802 -0.1060E-12  0.7955E-01  0.4500E+00  0.4269E+00
     11.939 -0.8305E-16  0.7093E-01  0.4500E+00  0.4367E+00
     12.076  0.0000E+00  0.3980E-01  0.4500E+00  0.4422E+00
     12.214  0.0000E+00  0.1623E-01  0.4500E+00  0.4444E+00
     12.351  0.0000E+00  0.1172E-01  0.4500E+00  0.4460E+00
     12.488  0.0000E+00  0.1259E-01  0.4500E+00  0.4477E+00
     12.626  0.0000E+00  0.7414E-02  0.4500E+00  0.4487E+00
     12.763  0.0000E+00  0.5130E-02  0.4500E+00  0.4494E+00
     12.900  0.0000E+00  0.3588E-02  0.4500E+00  0.4499E+00
     13.038  0.0000E+00  0.7232E-03  0.4500E+00  0.4500E+00
     13.175  0.0000E+00 -0.1964E-03  0.4500E+00  0.4500E+00
     13.312  0.0000E+00 -0.6606E-04  0.4500E+00  0.4500E+00
     13.450  0.0000E+00 -0.5107E-05  0.4500E+00  0.4500E+00
     13.587  0.0000E+00 -0.1346E-06  0.4500E+00  0.4500E+00
     13.724  0.0000E+00 -0.1308E-08  0.4500E+00  0.4500E+00
     13.862  0.0000E+00 -0.4815E-11  0.4500E+00  0.4500E+00
     13.999  0.0000E+00 -0.6792E-14  0.4500E+00  0.4500E+00
     14.136  0.0000E+00 -0.3743E-17  0.4500E+00  0.4500E+00
     14.274  0.0000E+00  0.0000E+00  0.4500E+00  0.4500E+00
     14.411  0.0000E+00  0.0000E+00  0.4500E+00  0.4500E+00
     14.548  0.0000E+00  0.0000E+00  0.4500E+00  0.4500E+00
     14.686  0.0000E+00  0.0000E+00  0.4500E+00  0.4500E+00
     14.823  0.0000E+00  0.0000E+00  0.4500E+00  0.4500E+00
     14.82298301    -26.37795463  301      8.47484268      1.00000000
    -26.378  0.0000E+00  0.0000E+00  0.0000E+00  0.0000E+00  0.0000E+00  0.0000E+00  0.0000E+00  0.0000E+00  0.0000E+00  0.0000E+00  0.0000E+00  0.0000E+00  0.0000E+00  0.0000E+00  0.0000E+00  0.0000E+00  0.0000E+00  0.0000E+00  0.0000E+00  0.0000E+00  0.0000E+00  0.0000E+00  0.0000E+00  0.0000E+00  0.0000E+00  0.0000E+00  0.0000E+00  0.0000E+00  0.0000E+00  0.0000E+00  0.0000E+00  0.0000E+00
    -26.241  0.0000E+00  0.0000E+00  0.0000E+00  0.0000E+00  0.0000E+00  0.0000E+00  0.0000E+00  0.0000E+00  0.0000E+00  0.0000E+00  0.0000E+00  0.0000E+00  0.0000E+00  0.0000E+00  0.0000E+00  0.0000E+00  0.0000E+00  0.0000E+00  0.0000E+00  0.0000E+00  0.0000E+00  0.0000E+00  0.0000E+00  0.0000E+00  0.0000E+00  0.0000E+00  0.0000E+00  0.0000E+00  0.0000E+00  0.0000E+00  0.0000E+00  0.0000E+00
    -26.103 -0.6731E-33 -0.1768E-34 -0.1008E-38 -0.1154E-45 -0.3231E-39 -0.4123E-46 -0.1491E-38 -0.4893E-46 -0.5115E-42 -0.1037E-43 -0.1578E-42 -0.4427E-45 -0.1921E-40 -0.1492E-48 -0.1242E-42 -0.4447E-44 -0.7840E-41 -0.4512E-49 -0.4425E-40 -0.3567E-42 -0.4822E-43 -0.1849E-45 -0.2771E-40 -0.1111E-42 -0.2424E-40 -0.7521E-43 -0.3713E-40 -0.4956E-42 -0.3422E-41 -0.2161E-42 -0.5968E-40 -0.1081E-43
    -25.966 -0.1495E-27 -0.6075E-28 -0.4002E-33 -0.1607E-33 -0.1321E-33 -0.5302E-34 -0.8140E-33 -0.3266E-33 -0.6555E-36 -0.2523E-36 -0.1220E-36 -0.4968E-37 -0.7561E-34 -0.3045E-34 -0.2062E-36 -0.8320E-37 -0.9655E-34 -0.3899E-34 -0.2023E-34 -0.8004E-35 -0.3156E-37 -0.8258E-38 -0.1016E-34 -0.3884E-35 -0.1053E-34 -0.4001E-35 -0.1983E-34 -0.7804E-35 -0.6722E-36 -0.4491E-37 -0.3440E-34 -0.1368E-34
    -25.829 -0.5473E-23 -0.2402E-23 -0.1569E-28 -0.6804E-29 -0.5252E-29 -0.2277E-29 -0.3073E-28 -0.1332E-28 -0.2630E-31 -0.1091E-31 -0.5148E-32 -0.2269E-32 -0.3313E-29 -0.1439E-29 -0.8377E-32 -0.3636E-32 -0.4120E-29 -0.1794E-29 -0.8051E-30 -0.3445E-30 -0.1257E-32 -0.3559E-33 -0.3972E-30 -0.1649E-30 -0.4234E-30 -0.1746E-30 -0.7492E-30 -0.3186E-30 -0.2380E-31 -0.1701E-32 -0.1306E-29 -0.5607E-30
    -25.691 -0.7874E-19 -0.3735E-19 -0.2426E-24 -0.1136E-24 -0.8258E-25 -0.3866E-25 -0.4537E-24 -0.2125E-24 -0.4135E-27 -0.1850E-27 -0.8598E-28 -0.4102E-28 -0.5732E-25 -0.2683E-25 -0.1335E-27 -0.6234E-28 -0.6889E-25 -0.3236E-25 -0.1266E-25 -0.5859E-26 -0.1955E-28 -0.6019E-29 -0.6129E-26 -0.2761E-26 -0.6751E-26 -0.3019E-26 -0.1107E-25 -0.5087E-26 -0.3280E-27 -0.2552E-28 -0.1940E-25 -0.8996E-26
    -25.554 -0.4417E-15 -0.2285E-15 -0.1474E-20 -0.7486E-21 -0.5144E-21 -0.2599E-21 -0.2609E-20 -0.1325E-20 -0.2541E-23 -0.1229E-23 -0.5682E-24 -0.2936E-24 -0.3911E-21 -0.1974E-21 -0.8337E-24 -0.4195E-24 -0.4505E-21 -0.2283E-21 -0.7843E-22 -0.3938E-22 -0.1188E-24 -0.3992E-25 -0.3719E-22 -0.1826E-22 -0.4276E-22 -0.2073E-22 -0.6376E-22 -0.3178E-22 -0.1749E-23 -0.1522E-24 -0.1124E-21 -0.5647E-22
    -25.417 -0.9613E-12 -0.5324E-12 -0.3444E-17 -0.1882E-17 -0.1229E-17 -0.6704E-18 -0.5700E-17 -0.3118E-17 -0.5915E-20 -0.3085E-20 -0.1437E-20 -0.8052E-21 -0.1018E-17 -0.5540E-18 -0.1973E-20 -0.1070E-20 -0.1112E-17 -0.6080E-18 -0.1870E-18 -0.1011E-18 -0.2729E-21 -0.1003E-21 -0.8700E-19 -0.4611E-19 -0.1042E-18 -0.5478E-19 -0.1395E-18 -0.7496E-19 -0.3541E-20 -0.3492E-21 -0.2475E-18 -0.1340E-18
    -25.279 -0.8370E-09 -0.5007E-09 -0.3234E-14 -0.1909E-14 -0.1193E-14 -0.7024E-15 -0.4953E-14 -0.2929E-14 -0.5491E-17 -0.3093E-17 -0.1468E-17 -0.8929E-18 -0.1064E-14 -0.6249E-15 -0.1870E-17 -0.1095E-17 -0.1091E-14 -0.6443E-15 -0.1794E-15 -0.1049E-15 -0.2518E-18 -0.1008E-18 -0.8188E-16 -0.4702E-16 -0.1035E-15 -0.5893E-16 -0.1215E-15 -0.7063E-16 -0.2842E-17 -0.3271E-18 -0.2172E-15 -0.1270E-15
    -25.142 -0.2854E-06 -0.1845E-06 -0.1186E-11 -0.7561E-12 -0.4566E-12 -0.2901E-12 -0.1661E-11 -0.1062E-11 -0.1967E-14 -0.1198E-14 -0.5869E-15 -0.3878E-15 -0.4330E-12 -0.2743E-12 -0.6873E-15 -0.4346E-15 -0.4119E-12 -0.2627E-12 -0.6729E-13 -0.4250E-13 -0.9076E-16 -0.3914E-16 -0.3016E-13 -0.1875E-13 -0.4060E-13 -0.2504E-13 -0.4091E-13 -0.2573E-13 -0.8810E-15 -0.1211E-15 -0.7373E-13 -0.4661E-13
    -25.005 -0.3773E-04 -0.2637E-04 -0.1678E-09 -0.1157E-09 -0.6819E-10 -0.4679E-10 -0.2124E-09 -0.1470E-09 -0.2686E-12 -0.1771E-12 -0.9067E-13 -0.6523E-13 -0.6765E-10 -0.4630E-10 -0.9676E-13 -0.6625E-13 -0.5892E-10 -0.4065E-10 -0.9743E-11 -0.6654E-11 -0.1272E-13 -0.5805E-14 -0.4295E-11 -0.2893E-11 -0.6223E-11 -0.4159E-11 -0.5255E-11 -0.3581E-11 -0.1044E-12 -0.1752E-13 -0.9561E-11 -0.6540E-11
    -24.867 -0.1889E-02 -0.1431E-02 -0.8922E-08 -0.6670E-08 -0.3880E-08 -0.2882E-08 -0.1006E-07 -0.7565E-08 -0.1359E-10 -0.9735E-11 -0.5276E-11 -0.4149E-11 -0.3955E-08 -0.2933E-08 -0.5085E-11 -0.3784E-11 -0.3105E-08 -0.2324E-08 -0.5301E-09 -0.3925E-09 -0.6812E-12 -0.3202E-12 -0.2304E-09 -0.1684E-09 -0.3637E-09 -0.2640E-09 -0.2506E-09 -0.1856E-09 -0.4614E-11 -0.9634E-12 -0.4608E-09 -0.3422E-09
    -24.730 -0.3343E-01 -0.2771E-01 -0.1663E-06 -0.1360E-06 -0.7905E-07 -0.6401E-07 -0.1633E-06 -0.1347E-06 -0.2362E-09 -0.1858E-09 -0.1085E-09 -0.9410E-10 -0.8112E-07 -0.6569E-07 -0.9301E-10 -0.7606E-10 -0.5596E-07 -0.4588E-07 -0.1012E-07 -0.8189E-08 -0.1316E-10 -0.6132E-11 -0.4350E-08 -0.3477E-08 -0.7622E-08 -0.6051E-08 -0.4108E-08 -0.3341E-08 -0.7052E-10 -0.1881E-10 -0.7653E-08 -0.6228E-08
    -24.593 -0.1579E+00 -0.1499E+00 -0.8254E-06 -0.7717E-06 -0.4573E-06 -0.4183E-06 -0.6411E-06 -0.6173E-06 -0.1028E-08 -0.9382E-09 -0.6207E-09 -0.6201E-09 -0.4577E-06 -0.4206E-06 -0.4457E-09 -0.4218E-09 -0.2535E-06 -0.2398E-06 -0.5200E-07 -0.4795E-07 -0.7241E-10 -0.3114E-10 -0.2212E-07 -0.2016E-07 -0.4575E-07 -0.4113E-07 -0.1650E-07 -0.1564E-07 -0.2604E-09 -0.1010E-09 -0.3144E-07 -0.2970E-07
    -24.455  0.3430E+00  0.2332E+00  0.1681E-05  0.1108E-05  0.5962E-06  0.3203E-06  0.2020E-05  0.1486E-05  0.2767E-08  0.1877E-08  0.8802E-09  0.4921E-09  0.6914E-06  0.4016E-06  0.9821E-09  0.6478E-09  0.6466E-06  0.4551E-06  0.9833E-07  0.6280E-07  0.1051E-09  0.6143E-10  0.4238E-07  0.2686E-07  0.5279E-07  0.2499E-07  0.4988E-07  0.3588E-07  0.8685E-09  0.1692E-09  0.9160E-07  0.6565E-07
    -24.318  0.2737E+01  0.2529E+01  0.1409E-04  0.1288E-04  0.7633E-05  0.6866E-05  0.1153E-04  0.1069E-04  0.1796E-07  0.1591E-07  0.1035E-07  0.1016E-07  0.7635E-05  0.6906E-05  0.7651E-08  0.7061E-08  0.4375E-05  0.4032E-05  0.8817E-06  0.7967E-06  0.1224E-08  0.5275E-09  0.3762E-06  0.3356E-06  0.7595E-06  0.6720E-06  0.2953E-06  0.2698E-06  0.4818E-08  0.1704E-08  0.5595E-06  0.5104E-06
    -24.181  0.3427E+01  0.3540E+01  0.1750E-04  0.1792E-04  0.1104E-04  0.1113E-04  0.1203E-04  0.1248E-04  0.1970E-07  0.1964E-07  0.1436E-07  0.1609E-07  0.1031E-04  0.1047E-04  0.9222E-08  0.9656E-08  0.4822E-05  0.4984E-05  0.1121E-05  0.1133E-05  0.1749E-08  0.6557E-09  0.4793E-06  0.4781E-06  0.1128E-05  0.1123E-05  0.3158E-06  0.3227E-06  0.5164E-08  0.2263E-08  0.6070E-06  0.6187E-06
    -24.043  0.9515E+00  0.1138E+01  0.4619E-05  0.5511E-05  0.3603E-05  0.4161E-05  0.2467E-05  0.3051E-05  0.4253E-08  0.5077E-08  0.4354E-08  0.5760E-08  0.2985E-05  0.3514E-05  0.2336E-08  0.2923E-08  0.1023E-05  0.1261E-05  0.3042E-06  0.3572E-06  0.5654E-09  0.1724E-09  0.1316E-06  0.1521E-06  0.3785E-06  0.4323E-06  0.6799E-07  0.8230E-07  0.1186E-08  0.6512E-09  0.1332E-06  0.1603E-06
    -23.906 -0.1544E+00 -0.1385E+00 -0.8387E-06 -0.7640E-06 -0.4402E-06 -0.3592E-06 -0.6370E-06 -0.6156E-06 -0.1041E-08 -0.9571E-09 -0.6276E-09 -0.5755E-09 -0.4724E-06 -0.4155E-06 -0.4512E-09 -0.4142E-09 -0.2587E-06 -0.2493E-06 -0.5291E-07 -0.4732E-07 -0.7120E-10 -0.3136E-10 -0.2232E-07 -0.1960E-07 -0.4371E-07 -0.3446E-07 -0.1636E-07 -0.1547E-07 -0.2530E-09 -0.1029E-09 -0.3133E-07 -0.2951E-07
    -23.769 -0.6585E-01 -0.7610E-01 -0.3215E-06 -0.3697E-06 -0.2393E-06 -0.2700E-06 -0.1872E-06 -0.2178E-06 -0.3144E-09 -0.3546E-09 -0.2924E-09 -0.3754E-09 -0.2021E-06 -0.2310E-06 -0.1646E-09 -0.1970E-09 -0.7569E-07 -0.8817E-07 -0.2100E-07 -0.2382E-07 -0.3765E-10 -0.1200E-10 -0.9075E-08 -0.1014E-07 -0.2499E-07 -0.2791E-07 -0.5075E-08 -0.5808E-08 -0.8763E-10 -0.4429E-10 -0.9865E-08 -0.1125E-07
    -23.631 -0.5316E-02 -0.6759E-02 -0.2435E-07 -0.3080E-07 -0.2078E-07 -0.2587E-07 -0.1262E-07 -0.1611E-07 -0.2116E-10 -0.2639E-10 -0.2383E-10 -0.3432E-10 -0.1584E-07 -0.1996E-07 -0.1222E-10 -0.1639E-10 -0.4959E-08 -0.6348E-08 -0.1612E-08 -0.2010E-08 -0.3212E-11 -0.9143E-12 -0.7066E-09 -0.8679E-09 -0.2202E-08 -0.2717E-08 -0.3536E-09 -0.4432E-09 -0.6614E-11 -0.3508E-11 -0.6900E-09 -0.8617E-09
    -23.494 -0.1436E-03 -0.1978E-03 -0.6156E-09 -0.8440E-09 -0.5879E-09 -0.7935E-09 -0.2924E-09 -0.4039E-09 -0.4823E-12 -0.6566E-12 -0.6362E-12 -0.1009E-11 -0.4071E-09 -0.5571E-09 -0.3039E-12 -0.4501E-12 -0.1096E-09 -0.1522E-09 -0.4117E-10 -0.5560E-10 -0.8867E-13 -0.2343E-13 -0.1831E-10 -0.2436E-10 -0.6291E-10 -0.8422E-10 -0.8454E-11 -0.1144E-10 -0.1723E-12 -0.9170E-13 -0.1649E-10 -0.2224E-10
    -23.357 -0.1435E-05 -0.2130E-05 -0.5726E-11 -0.8470E-11 -0.6053E-11 -0.8816E-11 -0.2533E-11 -0.3772E-11 -0.4066E-14 -0.6022E-14 -0.6185E-14 -0.1074E-13 -0.3806E-11 -0.5628E-11 -0.2786E-14 -0.4538E-14 -0.8924E-12 -0.1339E-11 -0.3863E-12 -0.5622E-12 -0.8837E-15 -0.2232E-15 -0.1745E-12 -0.2503E-12 -0.6531E-12 -0.9435E-12 -0.7565E-13 -0.1101E-12 -0.1692E-14 -0.8769E-15 -0.1470E-12 -0.2131E-12
    -23.219 -0.5478E-08 -0.8751E-08 -0.2029E-13 -0.3231E-13 -0.2354E-13 -0.3692E-13 -0.8466E-14 -0.1356E-13 -0.1309E-16 -0.2108E-16 -0.2271E-16 -0.4307E-16 -0.1341E-13 -0.2139E-13 -0.9731E-17 -0.1741E-16 -0.2767E-14 -0.4476E-14 -0.1379E-14 -0.2159E-14 -0.3301E-17 -0.8189E-18 -0.6332E-15 -0.9776E-15 -0.2557E-14 -0.3978E-14 -0.2613E-15 -0.4077E-15 -0.6451E-17 -0.3181E-17 -0.5042E-15 -0.7845E-15
    -23.082 -0.8107E-11 -0.1392E-10 -0.2780E-16 -0.4760E-16 -0.3513E-16 -0.5927E-16 -0.1106E-16 -0.1904E-16 -0.1635E-19 -0.2860E-19 -0.3199E-19 -0.6624E-19 -0.1810E-16 -0.3109E-16 -0.1314E-19 -0.2582E-19 -0.3320E-17 -0.5784E-17 -0.1902E-17 -0.3199E-17 -0.4700E-20 -0.1175E-20 -0.8882E-18 -0.1475E-17 -0.3838E-17 -0.6423E-17 -0.3527E-18 -0.5895E-18 -0.9640E-20 -0.4449E-20 -0.6746E-18 -0.1125E-17
    -22.945 -0.4680E-14 -0.8723E-14 -0.1472E-19 -0.2787E-19 -0.2063E-19 -0.3732E-19 -0.5347E-20 -0.1034E-19 -0.7293E-23 -0.1519E-22 -0.1784E-22 -0.4024E-22 -0.9553E-20 -0.1784E-19 -0.6947E-23 -0.1500E-22 -0.1257E-20 -0.2884E-20 -0.1018E-20 -0.1885E-20 -0.2491E-23 -0.6790E-24 -0.4848E-21 -0.8827E-21 -0.2267E-20 -0.4063E-20 -0.1802E-21 -0.3315E-21 -0.5668E-23 -0.2474E-23 -0.3418E-21 -0.6286E-21
    -22.807  0.0000E+00  0.0000E+00  0.0000E+00  0.0000E+00  0.0000E+00  0.0000E+00  0.0000E+00  0.0000E+00  0.0000E+00  0.0000E+00  0.0000E+00  0.0000E+00  0.0000E+00  0.0000E+00  0.0000E+00  0.0000E+00  0.0000E+00  0.0000E+00  0.0000E+00  0.0000E+00  0.0000E+00  0.0000E+00  0.0000E+00  0.0000E+00  0.0000E+00  0.0000E+00  0.0000E+00  0.0000E+00  0.0000E+00  0.0000E+00  0.0000E+00  0.0000E+00
    -22.670  0.0000E+00  0.0000E+00  0.0000E+00  0.0000E+00  0.0000E+00  0.0000E+00  0.0000E+00  0.0000E+00  0.0000E+00  0.0000E+00  0.0000E+00  0.0000E+00  0.0000E+00  0.0000E+00  0.0000E+00  0.0000E+00  0.0000E+00  0.0000E+00  0.0000E+00  0.0000E+00  0.0000E+00  0.0000E+00  0.0000E+00  0.0000E+00  0.0000E+00  0.0000E+00  0.0000E+00  0.0000E+00  0.0000E+00  0.0000E+00  0.0000E+00  0.0000E+00
    -22.533  0.0000E+00  0.0000E+00  0.0000E+00  0.0000E+00  0.0000E+00  0.0000E+00  0.0000E+00  0.0000E+00  0.0000E+00  0.0000E+00  0.0000E+00  0.0000E+00  0.0000E+00  0.0000E+00  0.0000E+00  0.0000E+00  0.0000E+00  0.0000E+00  0.0000E+00  0.0000E+00  0.0000E+00  0.0000E+00  0.0000E+00  0.0000E+00  0.0000E+00  0.0000E+00  0.0000E+00  0.0000E+00  0.0000E+00  0.0000E+00  0.0000E+00  0.0000E+00