    5    5   60    2
  0.1222957E+02  0.3939675E-09  0.3939675E-09  0.3939675E-09  0.5000000E-15
  1.000000000000000E-004
  CAR 
 unknown system                          
   36   84   27
 
  0.3742002E-15  0.3742002E-15  0.3742002E-15  0.5787037E-03
   1      -24.377955    -24.366562
   2      -11.146283    -11.094355
   3       -9.945655     -9.798138
   4       -9.945654     -9.798137
   5       -7.976121     -7.958411
   6       -7.976120     -7.958411
   7       -7.976119     -7.958410
   8        3.051932      3.140943
   9        3.051932      3.140943
  10        3.051932      3.140943
  11        3.592649      5.003336
  12        3.592649      5.003336
  13        3.592650      5.003337
  14        4.932884      6.120970
  15        4.932884      6.120970
  16        4.932884      6.120970
  17        5.878997      9.675239
  18        5.878999      9.675240
  19        6.157763      9.975638
  20        6.157763      9.975638
  21        6.157763      9.975640
  22        9.642498     10.336068
  23        9.642501     10.522326
  24       10.332858     10.522328
  25       10.526789     10.571140
  26       10.627529     10.714794
  27       10.695635     10.714818
 
  0.8333333E-01  0.3742002E-15  0.3742002E-15  0.3472222E-02
   1      -24.373951    -24.362587
   2      -11.163921    -11.112659
   3       -9.982098     -9.844750
   4       -9.940570     -9.793058
   5       -7.969547     -7.951558
   6       -7.969546     -7.951558
   7       -7.898832     -7.877273
   8        2.888625      3.090996
   9        3.018949      3.130935
  10        3.018949      3.130935
  11        3.515551      4.915879
  12        3.515549      4.945494
  13        3.595139      4.945494
  14        4.845197      5.951369
  15        5.009355      6.077943
  16        5.009356      6.077944
  17        5.459669      9.756613
  18        5.880552      9.785295
  19        6.152080      9.951088
  20        6.152080     10.069362
  21        6.629217     10.080040
  22        9.736770     10.390903
  23        9.764194     10.528532
  24       10.331510     10.531766
  25       10.518429     10.621702
  26       10.557941     10.732553
  27       10.677435     10.752844
 
  0.1666667E+00  0.3742002E-15  0.3742002E-15  0.3472222E-02
   1      -24.363225    -24.351946
   2      -11.225596    -11.173882
   3      -10.049653     -9.938782
   4       -9.932197     -9.784563
   5       -7.951483     -7.932723
   6       -7.951483     -7.932722
   7       -7.710631     -7.682726
   8        2.477618      2.956341
   9        2.928959      3.094088
  10        2.928959      3.094088
  11        3.332750      4.688861
  12        3.332750      4.801103
  13        3.601560      4.801104
  14        4.618162      5.525367
  15        4.987871      5.960174
  16        5.171985      5.960174
  17        5.171985      9.903470
  18        5.883128      9.907507
  19        6.144704     10.015786
  20        6.144705     10.249621
  21        7.209672     10.271499
  22        9.918112     10.525785
  23       10.028469     10.550177
  24       10.328557     10.554235
  25       10.488957     10.740174
  26       10.497402     10.837034
  27       10.652272     10.911530
 
  0.2500000E+00  0.3742002E-15  0.3742002E-15  0.3472222E-02
   1      -24.348486    -24.337322
   2      -11.335841    -11.280283
   3      -10.078116    -10.002882
   4       -9.920490     -9.772682
   5       -7.926555     -7.906716
   6       -7.926554     -7.906715
   7       -7.491870     -7.460567
   8        1.989673      2.797838
   9        2.813795      3.027270
  10        2.813797      3.027271
  11        3.120192      4.416552
  12        3.120193      4.652431
  13        3.610109      4.652432
  14        4.346386      4.994647
  15        4.566411      5.799843
  16        5.332044      5.799843
  17        5.332044      9.859934
  18        5.885368     10.019861
  19        6.160923     10.194462
  20        6.160924     10.341446
  21        7.718203     10.347381
  22       10.041475     10.568830
  23       10.209795     10.570060
  24       10.324478     10.703560
  25       10.459621     11.121494
  26       10.508599     11.124126
  27       10.619532     11.229710
 
  0.3333333E+00  0.3742002E-15  0.3742002E-15  0.3472222E-02
   1      -24.333645    -24.322580
   2      -11.462011    -11.401723
   3      -10.057564    -10.017808
   4       -9.908234     -9.760235
   5       -7.901326     -7.880379
   6       -7.901325     -7.880379
   7       -7.303303     -7.271616
   8        1.559638      2.671113
   9        2.708283      2.941464
  10        2.708284      2.941464
  11        2.929850      4.175928
  12        2.929850      4.505640
  13        3.618692      4.556337
  14        4.106481      4.556338
  15        4.230179      5.637472
  16        5.439011      5.637472
  17        5.439011      9.828267
  18        5.886817     10.066682
  19        6.210405     10.274840
  20        6.210406     10.363750
  21        8.106640     10.363795
  22       10.093877     10.573194
  23       10.290451     10.573382
  24       10.321510     10.895519
  25       10.436322     11.480086
  26       10.558791     11.531989
  27       10.605993     11.649439
 
  0.4166667E+00  0.3742002E-15  0.3742002E-15  0.3472222E-02
   1      -24.322751    -24.311765
   2      -11.560086    -11.496710
   3      -10.023304    -10.009314
   4       -9.899212     -9.751050
   5       -7.882657     -7.860879
   6       -7.882657     -7.860879
   7       -7.180313     -7.149378
   8        1.270060      2.599360
   9        2.638092      2.867207
  10        2.638093      2.867207
  11        2.796750      4.014743
  12        2.796750      4.154758
  13        3.624926      4.516367
  14        3.945790      4.516367
  15        4.007619      5.513724
  16        5.488699      5.513724
  17        5.488699      9.809513
  18        5.887624     10.083634
  19        6.266164     10.306645
  20        6.266164     10.367957
  21        8.345876     10.367964
  22       10.117394     10.572738
  23       10.321711     10.572760
  24       10.324332     11.059057
  25       10.421060     11.489119
  26       10.429161     11.751203
  27       10.597203     11.754526
 
  0.5000000E+00  0.3742002E-15  0.3742002E-15  0.1736111E-02
   1      -24.318797    -24.307839
   2      -11.596074    -11.531690
   3      -10.007847    -10.003336
   4       -9.897338     -9.749201
   5       -7.875789     -7.853702
   6       -7.875789     -7.853702
   7       -7.137844     -7.107299
   8        1.168800      2.580026
   9        2.614031      2.836184
  10        2.614033      2.836184
  11        2.746591      3.957281
  12        2.746591      4.026092
  13        3.626918      4.507441
  14        3.888479      4.507441
  15        3.931071      5.467111
  16        5.503022      5.467111
  17        5.503023      9.803271
  18        5.887579     10.087841
  19        6.288942     10.314961
  20        6.288942     10.368437
  21        8.426174     10.368443
  22       10.124794     10.572157
  23       10.317271     10.572188
  24       10.333308     11.126203
  25       10.416270     11.463490
  26       10.447717     11.850173
  27       10.594881     11.887533
 
  0.8333333E-01  0.8333333E-01  0.3742002E-15  0.6944444E-02
   1      -24.370090    -24.358763
   2      -11.176825    -11.126458
   3      -10.004589     -9.871784
   4       -9.955179     -9.812640
   5       -7.962932     -7.944712
   6       -7.928723     -7.905491
   7       -7.862054     -7.841998
   8        2.798827      2.981627
   9        2.921675      3.122742
  10        2.985422      3.179745
  11        3.416441      4.732605
  12        3.423141      4.882276
  13        3.622056      5.000741
  14        4.915935      5.802248
  15        4.930310      6.031136
  16        5.072255      6.033112
  17        5.441918      9.815524
  18        5.546202      9.835944
  19        6.142882      9.993930
  20        6.354694     10.097638
  21        6.862078     10.178522
  22        9.830154     10.431208
  23        9.843532     10.549053
  24       10.330570     10.565968
  25       10.509183     10.604908
  26       10.512344     10.753146
  27       10.640941     10.813794
 
  0.1666667E+00  0.8333333E-01  0.3742002E-15  0.1388889E-01
   1      -24.359463    -24.348204
   2      -11.225811    -11.175602
   3      -10.074857     -9.965105
   4       -9.948885     -9.808127
   5       -7.944760     -7.925894
   6       -7.901745     -7.878232
   7       -7.698756     -7.672806
   8        2.436555      2.815932
   9        2.803745      3.094126
  10        2.896412      3.187227
  11        3.203172      4.466655
  12        3.243955      4.735865
  13        3.642266      4.936715
  14        4.706192      5.418095
  15        5.008784      5.906153
  16        5.104640      5.922946
  17        5.220426      9.934733
  18        5.576394      9.963861
  19        6.129607     10.006696
  20        6.413506     10.246768
  21        7.380143     10.307256
  22        9.981278     10.482337
  23       10.054216     10.572204
  24       10.328122     10.660083
  25       10.474613     10.686080
  26       10.545621     10.849184
  27       10.622273     10.955121
 
  0.2500000E+00  0.8333333E-01  0.3742002E-15  0.1388889E-01
   1      -24.344897    -24.333739
   2      -11.319859    -11.266142
   3      -10.114598    -10.038885
   4       -9.933398     -9.792537
   5       -7.919675     -7.899907
   6       -7.881544     -7.858896
   7       -7.495598     -7.465659
   8        1.967378      2.651271
   9        2.668794      3.038216
  10        2.781570      3.141979
  11        2.984530      4.194741
  12        3.042314      4.584145
  13        3.654358      4.737699
  14        4.442137      5.028223
  15        4.671067      5.736442
  16        5.132275      5.763938
  17        5.370608      9.920389
  18        5.748592     10.031766
  19        6.138384     10.162770
  20        6.421848     10.345373
  21        7.874573     10.352279
  22       10.063787     10.522995
  23       10.205121     10.572537
  24       10.325031     10.792636
  25       10.443974     10.946958
  26       10.470217     11.148658
  27       10.594418     11.295916
 
  0.3333333E+00  0.8333333E-01  0.3742002E-15  0.1388889E-01
   1      -24.330193    -24.319138
   2      -11.433576    -11.374964
   3      -10.102473    -10.061554
   4       -9.916878     -9.775467
   5       -7.894286     -7.873593
   6       -7.862588     -7.840807
   7       -7.320235     -7.289489
   8        1.546783      2.533668
   9        2.531217      2.961626
  10        2.675956      3.063792
  11        2.814015      3.946003
  12        2.860947      4.390182
  13        3.663605      4.487704
  14        4.201192      4.877173
  15        4.394597      5.567244
  16        5.123881      5.589806
  17        5.473193      9.888259
  18        5.963117     10.073430
  19        6.184232     10.259781
  20        6.407258     10.356253
  21        8.255333     10.366136
  22       10.103919     10.542672
  23       10.284748     10.565298
  24       10.321821     10.954256
  25       10.422031     11.310889
  26       10.445842     11.489383
  27       10.579159     11.762227
 
  0.4166667E+00  0.8333333E-01  0.3742002E-15  0.1388889E-01
   1      -24.319378    -24.308402
   2      -11.524595    -11.462621
   3      -10.071371    -10.056288
   4       -9.905270     -9.762809
   5       -7.875495     -7.854110
   6       -7.848831     -7.827725
   7       -7.206303     -7.176076
   8        1.261978      2.477698
   9        2.428464      2.892882
  10        2.606031      2.990086
  11        2.708264      3.736521
  12        2.733272      4.135755
  13        3.669635      4.449991
  14        4.034076      4.851061
  15        4.221358      5.435407
  16        5.103908      5.442138
  17        5.520521      9.869246
  18        6.148494     10.086780
  19        6.236413     10.306798
  20        6.365776     10.350903
  21        8.489898     10.370001
  22       10.127003     10.548349
  23       10.320691     10.558585
  24       10.330320     11.098579
  25       10.412195     11.546439
  26       10.481836     11.619613
  27       10.570626     11.754336
 
  0.5000000E+00  0.8333333E-01  0.3742002E-15  0.6944444E-02
   1      -24.315443    -24.304494
   2      -11.559519    -11.496397
   3      -10.056716    -10.051342
   4       -9.901641     -9.758532
   5       -7.868584     -7.846940
   6       -7.843806     -7.822960
   7       -7.167477     -7.137585
   8        1.161615      2.464866
   9        2.390124      2.865142
  10        2.582523      2.960774
  11        2.672461      3.644103
  12        2.686223      4.053082
  13        3.671823      4.443237
  14        3.973562      4.855882
  15        4.162056      5.376374
  16        5.093031      5.384345
  17        5.532312      9.862908
  18        6.258952     10.090046
  19        6.262116     10.323632
  20        6.301231     10.345206
  21        8.568009     10.370325
  22       10.134288     10.549354
  23       10.323973     10.555958
  24       10.337260     11.156362
  25       10.390398     11.548749
  26       10.420990     11.734905
  27       10.567904     11.848405
 
  0.1666667E+00  0.1666667E+00  0.3742002E-15  0.6944444E-02
   1      -24.349152    -24.337956
   2      -11.236403    -11.188453
   3      -10.154049    -10.054074
   4       -9.954201     -9.824681
   5       -7.926280     -7.907120
   6       -7.814692     -7.783966
   7       -7.635904     -7.613107
   8        2.259558      2.613628
   9        2.555558      3.088737
  10        2.808746      3.263011
  11        2.922364      4.153111
  12        3.066815      4.580703
  13        3.695727      5.014461
  14        4.682504      5.123010
  15        4.919343      5.763519
  16        5.269026      5.851393
  17        5.285598      9.975175
  18        5.342375     10.039532
  19        6.100534     10.064744
  20        6.596209     10.287630
  21        7.814342     10.351746
  22       10.074658     10.465714
  23       10.106651     10.607055
  24       10.326889     10.685773
  25       10.455440     10.854495
  26       10.478198     10.907208
  27       10.590789     11.217704
 
  0.2500000E+00  0.1666667E+00  0.3742002E-15  0.1388889E-01
   1      -24.334992    -24.323879
   2      -11.280232    -11.230904
   3      -10.221148    -10.145696
   4       -9.940883     -9.816530
   5       -7.900763     -7.881194
   6       -7.777748     -7.749736
   7       -7.500514     -7.474562
   8        1.891975      2.439044
   9        2.362616      3.066071
  10        2.657373      3.269849
  11        2.694151      3.828990
  12        2.876328      4.415146
  13        3.730586      4.750612
  14        4.459963      5.039796
  15        4.869317      5.571047
  16        5.062813      5.743868
  17        5.472788     10.040367
  18        5.586350     10.047816
  19        6.089587     10.138100
  20        6.671011     10.352665
  21        8.289062     10.358170
  22       10.113557     10.474086
  23       10.189560     10.577902
  24       10.325233     10.883702
  25       10.402677     10.980450
  26       10.476049     11.178567
  27       10.568402     11.645829
 
  0.3333333E+00  0.1666667E+00  0.3742002E-15  0.1388889E-01
   1      -24.320729    -24.309708
   2      -11.354361    -11.300301
   3      -10.228874    -10.184259
   4       -9.928718     -9.805042
   5       -7.874932     -7.854945
   6       -7.767068     -7.743967
   7       -7.365320     -7.337517
   8        1.508955      2.329218
   9        2.172573      3.019828
  10        2.501171      3.219984
  11        2.587398      3.512875
  12        2.708174      4.310030
  13        3.751618      4.467710
  14        4.296710      5.051060
  15        4.747223      5.375367
  16        4.918932      5.596739
  17        5.563213     10.022865
  18        5.888445     10.085866
  19        6.117636     10.215671
  20        6.697556     10.354361
  21        8.664443     10.372837
  22       10.129121     10.491362
  23       10.257257     10.547617
  24       10.324362     11.104690
  25       10.406593     11.196887
  26       10.470259     11.507239
  27       10.552536     11.730710
 
  0.4166667E+00  0.1666667E+00  0.3742002E-15  0.1388889E-01
   1      -24.310199    -24.299241
   2      -11.422929    -11.364886
   3      -10.200604    -10.182302
   4       -9.924548     -9.797901
   5       -7.855813     -7.835513
   6       -7.763389     -7.744137
   7       -7.275149     -7.247273
   8        1.239009      2.289169
   9        2.024247      2.969146
  10        2.430402      3.163373
  11        2.517032      3.253988
  12        2.589167      4.275348
  13        3.763912      4.303876
  14        4.202843      5.112538
  15        4.660922      5.222969
  16        4.810716      5.433952
  17        5.604465     10.009909
  18        6.110173     10.094711
  19        6.161630     10.270291
  20        6.695394     10.348487
  21        8.895395     10.375255
  22       10.140366     10.500566
  23       10.301228     10.525239
  24       10.324907     11.209190
  25       10.361990     11.492698
  26       10.428278     11.726105
  27       10.513873     11.750563
 
  0.5000000E+00  0.1666667E+00  0.3742002E-15  0.6944444E-02
   1      -24.306322    -24.295395
   2      -11.450002    -11.390549
   3      -10.183311    -10.175974
   4       -9.925029     -9.796005
   5       -7.848777     -7.828362
   6       -7.762397     -7.744632
   7       -7.244074     -7.216366
   8        1.142607      2.286073
   9        1.970198      2.946870
  10        2.410612      3.141041
  11        2.494975      3.149051
  12        2.543647      4.250180
  13        3.767765      4.272162
  14        4.171079      5.163676
  15        4.638013      5.187365
  16        4.763905      5.323982
  17        5.614531     10.005409
  18        6.182220     10.096026
  19        6.195252     10.289981
  20        6.688324     10.345077
  21        8.971731     10.375108
  22       10.147163     10.502980
  23       10.320815     10.516678
  24       10.332660     11.250212
  25       10.351741     11.615862
  26       10.458258     11.723334
  27       10.513476     11.840621
 
  0.2500000E+00  0.2500000E+00  0.3742002E-15  0.6944444E-02
   1      -24.321360    -24.310315
   2      -11.243975    -11.197689
   3      -10.332952    -10.267914
   4       -9.940218     -9.828792
   5       -7.874649     -7.855362
   6       -7.685755     -7.655933
   7       -7.482045     -7.460131
   8        1.714130      2.262590
   9        2.087506      3.096510
  10        2.278302      3.326679
  11        2.578207      3.448019
  12        2.697119      4.226040
  13        3.792188      4.629484
  14        4.356628      5.057539
  15        4.892443      5.347438
  16        5.391434      5.761113
  17        5.450584     10.071561
  18        5.596129     10.119081
  19        6.046805     10.151405
  20        6.796881     10.359488
  21        8.780087     10.372418
  22       10.167575     10.454166
  23       10.168632     10.564521
  24       10.326813     10.978931
  25       10.378066     11.222622
  26       10.475247     11.269466
  27       10.541642     11.813721
 
  0.3333333E+00  0.2500000E+00  0.3742002E-15  0.1388889E-01
   1      -24.307695    -24.296714
   2      -11.240958    -11.192764
   3      -10.381717    -10.337522
   4       -9.949835     -9.844356
   5       -7.848201     -7.829204
   6       -7.657191     -7.633833
   7       -7.420670     -7.397971
   8        1.435757      2.149293
   9        1.839820      3.091626
  10        2.063260      3.106547
  11        2.468266      3.313072
  12        2.540105      4.093684
  13        3.832216      4.536427
  14        4.332888      5.058489
  15        4.850836      5.115871
  16        5.267864      5.756031
  17        5.683135     10.098741
  18        5.777111     10.146555
  19        6.043311     10.178434
  20        6.857527     10.361030
  21        9.183321     10.381458
  22       10.155995     10.456168
  23       10.212262     10.530226
  24       10.328745     11.211609
  25       10.367061     11.319391
  26       10.459837     11.536269
  27       10.510376     11.843831
 
  0.4166667E+00  0.2500000E+00  0.3742002E-15  0.1388889E-01
   1      -24.297615    -24.286683
   2      -11.264624    -11.212368
   3      -10.364483    -10.343676
   4       -9.972421     -9.865334
   5       -7.828627     -7.809849
   6       -7.659429     -7.642806
   7       -7.361737     -7.338325
   8        1.202453      2.106965
   9        1.634596      2.816439
  10        2.003246      3.091934
  11        2.394765      3.276585
  12        2.429772      4.050784
  13        3.854738      4.516652
  14        4.388059      4.930211
  15        4.762630      5.041842
  16        5.161149      5.730526
  17        5.718000     10.104981
  18        6.022968     10.154285
  19        6.071845     10.212906
  20        6.883979     10.368400
  21        9.426247     10.381005
  22       10.168548     10.461882
  23       10.241084     10.493927
  24       10.329544     11.383679
  25       10.370345     11.472167
  26       10.424383     11.750696
  27       10.486588     11.854778
 
  0.5000000E+00  0.2500000E+00  0.3742002E-15  0.6944444E-02
   1      -24.293892    -24.282981
   2      -11.278138    -11.224167
   3      -10.344576    -10.335154
   4       -9.986774     -9.876432
   5       -7.821413     -7.802718
   6       -7.662362     -7.648345
   7       -7.339464     -7.316032
   8        1.114190      2.104078
   9        1.562587      2.706304
  10        1.989118      3.081137
  11        2.374625      3.260706
  12        2.385240      4.051052
  13        3.862348      4.518559
  14        4.436749      4.857627
  15        4.705183      5.032436
  16        5.120276      5.717138
  17        5.725825     10.104668
  18        6.090041     10.156154
  19        6.112646     10.227226
  20        6.890381     10.374873
  21        9.502944     10.380114
  22       10.175260     10.463856
  23       10.248596     10.476447
  24       10.330441     11.408243
  25       10.373463     11.592773
  26       10.449493     11.830365
  27       10.473641     11.853430
 
  0.3333333E+00  0.3333333E+00  0.3742002E-15  0.6944444E-02
   1      -24.294588    -24.283651
   2      -11.130518    -11.086101
   3      -10.491279    -10.454635
   4       -9.997206     -9.904096
   5       -7.821126     -7.803150
   6       -7.578723     -7.557600
   7       -7.454451     -7.437250
   8        1.291378      2.018495
   9        1.620795      2.727809
  10        1.667701      3.196374
  11        2.352735      3.328788
  12        2.394512      3.917963
  13        3.889558      4.604920
  14        4.426863      4.843088
  15        4.906037      5.063096
  16        5.545501      5.899958
  17        5.769800     10.111912
  18        5.786292     10.163500
  19        5.995851     10.220068
  20        6.934285     10.372450
  21        9.630705     10.384901
  22       10.152919     10.443355
  23       10.213717     10.510110
  24       10.332379     11.343926
  25       10.419888     11.536091
  26       10.436780     11.591444
  27       10.495911     11.898882
 
  0.4166667E+00  0.3333333E+00  0.3742002E-15  0.1388889E-01
   1      -24.284934    -24.274029
   2      -11.070472    -11.024915
   3      -10.512322    -10.490869
   4      -10.064104     -9.973739
   5       -7.801077     -7.783871
   6       -7.566776     -7.552893
   7       -7.437161     -7.420334
   8        1.132778      1.949805
   9        1.338813      2.464679
  10        1.595647      3.252189
  11        2.274576      3.309136
  12        2.293060      3.843296
  13        3.922567      4.613688
  14        4.578562      4.712385
  15        4.876263      5.033403
  16        5.521961      5.980781
  17        5.828756     10.116156
  18        5.978110     10.167946
  19        5.996421     10.254265
  20        6.969221     10.382891
  21        9.973541     10.392387
  22       10.166637     10.442689
  23       10.334501     10.479844
  24       10.374354     11.533615
  25       10.396736     11.585857
  26       10.428768     11.751635
  27       10.457121     11.912699
 
  0.5000000E+00  0.3333333E+00  0.3742002E-15  0.6944444E-02
   1      -24.281380    -24.270485
   2      -11.058279    -11.011159
   3      -10.494242    -10.483171
   4      -10.103514    -10.010289
   5       -7.793684     -7.776764
   6       -7.571681     -7.561132
   7       -7.421720     -7.404797
   8        1.066579      1.934114
   9        1.239386      2.362860
  10        1.581304      3.264314
  11        2.250548      3.297862
  12        2.253189      3.841093
  13        3.933185      4.515334
  14        4.700383      4.785628
  15        4.800574      4.993509
  16        5.497270      6.006223
  17        5.832418     10.114890
  18        6.008981     10.173793
  19        6.068740     10.264211
  20        6.979653     10.381542
  21        9.997777     10.410531
  22       10.183462     10.443263
  23       10.336484     10.456555
  24       10.385541     11.596362
  25       10.399461     11.637029
  26       10.435073     11.819255
  27       10.448840     11.904587
 
  0.4166667E+00  0.4166667E+00  0.3742002E-15  0.6944444E-02
   1      -24.275600    -24.264717
   2      -10.886765    -10.847482
   3      -10.597687    -10.579099
   4      -10.194257    -10.110910
   5       -7.780672     -7.764649
   6       -7.510940     -7.499564
   7       -7.477445     -7.466833
   8        1.024588      1.843055
   9        1.130074      2.229836
  10        1.387765      3.297267
  11        2.190925      3.415502
  12        2.199084      3.713677
  13        3.962785      4.328660
  14        4.765841      4.878407
  15        4.942816      5.051763
  16        5.662317      6.130613
  17        5.900943     10.124491
  18        5.955231     10.143328
  19        6.051623     10.306871
  20        7.003778     10.380771
  21       10.101292     10.419894
  22       10.127729     10.437828
  23       10.340437     10.471260
  24       10.383886     11.634987
  25       10.414895     11.739558
  26       10.434866     11.760155
  27       10.462043     11.914734
 
  0.5000000E+00  0.4166667E+00  0.3742002E-15  0.6944444E-02
   1      -24.272198    -24.261320
   2      -10.813485    -10.776875
   3      -10.598194    -10.586095
   4      -10.279709    -10.192928
   5       -7.773154     -7.757571
   6       -7.509910     -7.501789
   7       -7.471994     -7.461796
   8        0.977241      1.805715
   9        1.032951      2.145187
  10        1.346652      3.287305
  11        2.162383      3.484169
  12        2.164237      3.694874
  13        3.975712      4.188881
  14        4.890021      4.977408
  15        4.913113      5.025981
  16        5.673964      6.178871
  17        5.910788     10.124116
  18        5.956981     10.139476
  19        6.114420     10.322860
  20        7.012735     10.379390
  21       10.099475     10.437383
  22       10.135761     10.443996
  23       10.342320     10.455861
  24       10.377855     11.695742
  25       10.434441     11.750166
  26       10.437360     11.811529
  27       10.449804     11.902062
 
  0.5000000E+00  0.5000000E+00  0.3742002E-15  0.1736111E-02
   1      -24.268779    -24.257910
   2      -10.634477    -10.622053
   3      -10.634477    -10.622052
   4      -10.433440    -10.328562
   5       -7.765590     -7.750503
   6       -7.487841     -7.480613
   7       -7.487841     -7.480613
   8        0.919552      1.758553
   9        0.962865      2.071623
  10        1.290002      3.279618
  11        2.132211      3.643286
  12        2.132211      3.643287
  13        3.990538      3.993606
  14        4.961159      5.049081
  15        4.961159      5.049081
  16        5.705387      6.238015
  17        5.939542     10.127998
  18        5.939542     10.127998
  19        6.164660     10.340924
  20        7.020636     10.378025
  21       10.118013     10.436759
  22       10.118021     10.458704
  23       10.344140     10.458705
  24       10.372000     11.724674
  25       10.433516     11.808644
  26       10.451781     11.808670
  27       10.451876     11.889089
 
  0.8333333E-01  0.8333333E-01  0.8333333E-01  0.4629630E-02
   1      -24.366235    -24.354934
   2      -11.185876    -11.136596
   3       -9.997687     -9.864562
   4       -9.997687     -9.864561
   5       -7.927770     -7.904547
   6       -7.927769     -7.904546
   7       -7.820734     -7.802067
   8        2.703708      2.880586
   9        2.897850      3.171014
  10        2.897850      3.171014
  11        3.337867      4.686181
  12        3.337867      4.686181
  13        3.610721      5.082118
  14        4.985689      5.647710
  15        4.985690      5.994853
  16        5.011504      5.994853
  17        5.456340      9.850384
  18        5.456340      9.857163
  19        5.825803     10.024533
  20        6.855828     10.191957
  21        6.855829     10.212302
  22        9.902069     10.441155
  23        9.910554     10.582188
  24       10.329758     10.583266
  25       10.493858     10.626712
  26       10.538949     10.711331
  27       10.696050     10.889416
 
  0.1666667E+00  0.8333333E-01  0.8333333E-01  0.1388889E-01
   1      -24.355738    -24.344501
   2      -11.223477    -11.174865
   3      -10.081418     -9.972777
   4       -9.980901     -9.846796
   5       -7.925355     -7.902170
   6       -7.882472     -7.858034
   7       -7.677245     -7.653875
   8        2.381970      2.706381
   9        2.740264      3.141048
  10        2.829048      3.204082
  11        3.138902      4.401800
  12        3.147509      4.555478
  13        3.610889      5.066621
  14        4.798229      5.285389