       N       E                     dE             d eps       ncg     rms          rms(c)
DAV:   1     0.342704104018E+03    0.34270E+03   -0.13002E+04  9912   0.169E+03
DAV:   2     0.416433441930E+02   -0.30106E+03   -0.26792E+03  9548   0.337E+02
DAV:   3    -0.366641409391E+02   -0.78307E+02   -0.67558E+02 13364   0.168E+02
DAV:   4    -0.435779760880E+02   -0.69138E+01   -0.65609E+01 15850   0.502E+01
DAV:   5    -0.438866439501E+02   -0.30867E+00   -0.30492E+00 13990   0.991E+00    0.218E+01
RMM:   6    -0.402832640153E+02    0.36034E+01   -0.75872E+01 12017   0.648E+01    0.999E+00
RMM:   7    -0.395440838998E+02    0.73918E+00   -0.77273E+00 10649   0.314E+01    0.344E+00
RMM:   8    -0.397446074578E+02   -0.20052E+00   -0.23100E+00 12070   0.107E+01    0.197E+00
RMM:   9    -0.398094804742E+02   -0.64873E-01   -0.86860E-01 12602   0.517E+00    0.858E-01
RMM:  10    -0.398274901587E+02   -0.18010E-01   -0.22753E-01 12722   0.294E+00    0.383E-01
RMM:  11    -0.398304078586E+02   -0.29177E-02   -0.47412E-02 12482   0.125E+00    0.228E-01
RMM:  12    -0.398320786467E+02   -0.16708E-02   -0.27392E-02 12131   0.845E-01    0.113E-01
RMM:  13    -0.398327491519E+02   -0.67051E-03   -0.75573E-03 10915   0.482E-01    0.145E-01
RMM:  14    -0.398325936449E+02    0.15551E-03   -0.42452E-03 10299   0.337E-01    0.546E-02
RMM:  15    -0.398328127985E+02   -0.21915E-03   -0.26936E-03 10092   0.290E-01    0.319E-02
RMM:  16    -0.398329331480E+02   -0.12035E-03   -0.14736E-03  7081   0.185E-01    0.145E-02
RMM:  17    -0.398330209242E+02   -0.87776E-04   -0.91386E-04  6953   0.126E-01
   1 F= -.39833021E+02 E0= -.39833750E+02  d E =-.398330E+02  mag=     4.0000
       N       E                     dE             d eps       ncg     rms          rms(c)
DAV:   1    -0.403449313827E+02   -0.51200E+00   -0.16940E+01 11281   0.376E+01    0.513E+00
RMM:   2    -0.398662021247E+02    0.47873E+00   -0.16284E+00 12045   0.993E+00    0.194E+00
RMM:   3    -0.398162489414E+02    0.49953E-01   -0.48151E-01 10779   0.700E+00    0.633E-01
RMM:   4    -0.398204509337E+02   -0.42020E-02   -0.99845E-02 11472   0.312E+00    0.357E-01
RMM:   5    -0.398181772107E+02    0.22737E-02   -0.25807E-02 11604   0.148E+00    0.171E-01
RMM:   6    -0.398186595483E+02   -0.48234E-03   -0.42629E-03 10930   0.545E-01    0.883E-02
RMM:   7    -0.398186677175E+02   -0.81692E-05   -0.11703E-03  9102   0.270E-01    0.482E-02
RMM:   8    -0.398188557659E+02   -0.18805E-03   -0.86853E-04  9079   0.268E-01    0.671E-02
RMM:   9    -0.398186995144E+02    0.15625E-03   -0.33230E-04  7051   0.206E-01    0.117E-02
RMM:  10    -0.398187318951E+02   -0.32381E-04   -0.29260E-04  6864   0.152E-01
   2 F= -.39818732E+02 E0= -.39819558E+02  d E =0.142890E-01  mag=     4.0000
       N       E                     dE             d eps       ncg     rms          rms(c)
DAV:   1    -0.400172188498E+02   -0.19852E+00   -0.52900E+00 11581   0.209E+01    0.281E+00
RMM:   2    -0.398710582265E+02    0.14616E+00   -0.50661E-01 12048   0.535E+00    0.107E+00
RMM:   3    -0.398546866875E+02    0.16372E-01   -0.14403E-01 10758   0.392E+00    0.344E-01
RMM:   4    -0.398564245880E+02   -0.17379E-02   -0.35717E-02 11732   0.167E+00    0.195E-01
RMM:   5    -0.398553642335E+02    0.10604E-02   -0.63757E-03 11166   0.775E-01    0.852E-02
RMM:   6    -0.398555180574E+02   -0.15382E-03   -0.16218E-03  9453   0.318E-01    0.490E-02
RMM:   7    -0.398555053175E+02    0.12740E-04   -0.21300E-04  6267   0.167E-01
   3 F= -.39855505E+02 E0= -.39856281E+02  d E =-.224844E-01  mag=     4.0000
