 vasp.5.3.2 13Sep12 (build Apr 01 2013 09:32:17) complex                        
  
 executed on             LinuxIFC date 2014.02.10  05:09:25
 serial version


--------------------------------------------------------------------------------------------------------


 INCAR:
 POTCAR:  PAW_PBE La 06Sep2000                    
 POTCAR:  PAW_PBE Mn 06Sep2000                    
 POTCAR:  PAW_PBE O 08Apr2002                     
 POTCAR:  PAW_PBE La 06Sep2000                    
   VRHFIN =La : [core=Kr4d]                                                     
   LEXCH  = PE                                                                  
   EATOM  =   865.2204 eV,   63.5919 Ry                                         
                                                                                
   TITEL  = PAW_PBE La 06Sep2000                                                
   LULTRA =        F    use ultrasoft PP ?                                      
   IUNSCR =        1    unscreen: 0-lin 1-nonlin 2-no                           
   RPACOR =    2.300    partial core radius                                     
   POMASS =  138.900; ZVAL   =   11.000    mass and valenz                      
   RCORE  =    2.800    outmost cutoff radius                                   
   RWIGS  =    2.900; RWIGS  =    1.535    wigner-seitz radius (au A)           
   ENMAX  =  219.313; ENMIN  =  164.485 eV                                      
   RCLOC  =    1.601    cutoff for local pot                                    
   LCOR   =        T    correct aug charges                                     
   LPAW   =        T    paw PP                                                  
   EAUG   =  583.575                                                            
   DEXC   =     .000                                                            
   RMAX   =    3.113    core radius for proj-oper                               
   RAUG   =    1.300    factor for augmentation sphere                          
   RDEP   =    2.802    radius for radial grids                                 
   QCUT   =   -4.015; QGAM   =    8.030    optimization parameters              
                                                                                
   Description                                                                  
     l     E      TYP  RCUT    TYP  RCUT                                        
     0   .000     23  2.800                                                     
     0   .000     23  2.800                                                     
     1   .000     23  2.500                                                     
     1  2.000     23  2.500                                                     
     2   .000     23  2.500                                                     
     2   .000     23  2.500                                                     
     3   .000     23  2.800                                                     
     3   .000     23  2.800                                                     
  local pseudopotential read in
  partial core-charges read in
  atomic valenz-charges read in
  non local Contribution for L=           0  read in
    real space projection operators read in
  non local Contribution for L=           0  read in
    real space projection operators read in
  non local Contribution for L=           1  read in
    real space projection operators read in
  non local Contribution for L=           1  read in
    real space projection operators read in
  non local Contribution for L=           2  read in
    real space projection operators read in
  non local Contribution for L=           2  read in
    real space projection operators read in
  non local Contribution for L=           3  read in
    real space projection operators read in
  non local Contribution for L=           3  read in
    real space projection operators read in
    PAW grid and wavefunctions read in
 
   number of l-projection  operators is LMAX  =           8
   number of lm-projection operators is LMMAX =          32
 
 POTCAR:  PAW_PBE Mn 06Sep2000                    
   VRHFIN =Mn: d6 s1                                                            
   LEXCH  = PE                                                                  
   EATOM  =   416.8732 eV,   30.6393 Ry                                         
                                                                                
   TITEL  = PAW_PBE Mn 06Sep2000                                                
   LULTRA =        F    use ultrasoft PP ?                                      
   IUNSCR =        1    unscreen: 0-lin 1-nonlin 2-no                           
   RPACOR =    2.000    partial core radius                                     
   POMASS =   54.938; ZVAL   =    7.000    mass and valenz                      
   RCORE  =    2.300    outmost cutoff radius                                   
   RWIGS  =    2.500; RWIGS  =    1.323    wigner-seitz radius (au A)           
   ENMAX  =  269.865; ENMIN  =  202.399 eV                                      
   RCLOC  =    1.725    cutoff for local pot                                    
   LCOR   =        T    correct aug charges                                     
   LPAW   =        T    paw PP                                                  
   EAUG   =  500.711                                                            
   DEXC   =    -.071                                                            
   RMAX   =    2.807    core radius for proj-oper                               
   RAUG   =    1.300    factor for augmentation sphere                          
   RDEP   =    2.338    radius for radial grids                                 
   QCUT   =   -4.454; QGAM   =    8.907    optimization parameters              
                                                                                
   Description                                                                  
     l     E      TYP  RCUT    TYP  RCUT                                        
     2   .000     23  2.300                                                     
     2   .000     23  2.300                                                     
     0   .000     23  2.300                                                     
     0   .000     23  2.300                                                     
     1  -.200     23  2.300                                                     
     1  1.500     23  2.300                                                     
     3   .000      7   .000                                                     
  local pseudopotential read in
  partial core-charges read in
  atomic valenz-charges read in
  non local Contribution for L=           2  read in
    real space projection operators read in
  non local Contribution for L=           2  read in
    real space projection operators read in
  non local Contribution for L=           0  read in
    real space projection operators read in
  non local Contribution for L=           0  read in
    real space projection operators read in
  non local Contribution for L=           1  read in
    real space projection operators read in
  non local Contribution for L=           1  read in
    real space projection operators read in
    PAW grid and wavefunctions read in
 
   number of l-projection  operators is LMAX  =           6
   number of lm-projection operators is LMMAX =          18
 
 POTCAR:  PAW_PBE O 08Apr2002                     
   VRHFIN =O: s2p4                                                              
   LEXCH  = PE                                                                  
   EATOM  =   432.3788 eV,   31.7789 Ry                                         
                                                                                
   TITEL  = PAW_PBE O 08Apr2002                                                 
   LULTRA =        F    use ultrasoft PP ?                                      
   IUNSCR =        0    unscreen: 0-lin 1-nonlin 2-no                           
   RPACOR =     .000    partial core radius                                     
   POMASS =   16.000; ZVAL   =    6.000    mass and valenz                      
   RCORE  =    1.520    outmost cutoff radius                                   
   RWIGS  =    1.550; RWIGS  =     .820    wigner-seitz radius (au A)           
   ENMAX  =  400.000; ENMIN  =  300.000 eV                                      
   ICORE  =        2    local potential                                         
   LCOR   =        T    correct aug charges                                     
   LPAW   =        T    paw PP                                                  
   EAUG   =  605.392                                                            
   DEXC   =     .000                                                            
   RMAX   =    2.264    core radius for proj-oper                               
   RAUG   =    1.300    factor for augmentation sphere                          
   RDEP   =    1.550    radius for radial grids                                 
   QCUT   =   -5.520; QGAM   =   11.041    optimization parameters              
                                                                                
   Description                                                                  
     l     E      TYP  RCUT    TYP  RCUT                                        
     0   .000     23  1.200                                                     
     0  -.700     23  1.200                                                     
     1   .000     23  1.520                                                     
     1   .600     23  1.520                                                     
     2   .000      7  1.500                                                     
  local pseudopotential read in
  atomic valenz-charges read in
  non local Contribution for L=           0  read in
    real space projection operators read in
  non local Contribution for L=           0  read in
    real space projection operators read in
  non local Contribution for L=           1  read in
    real space projection operators read in
  non local Contribution for L=           1  read in
    real space projection operators read in
    PAW grid and wavefunctions read in
 
   number of l-projection  operators is LMAX  =           4
   number of lm-projection operators is LMMAX =           8
 
PAW_PBE La 06Sep2000                    :
 energy of atom  1       EATOM= -865.2204
 kinetic energy error for atom=    0.0031 (will be added to EATOM!!)
PAW_PBE Mn 06Sep2000                    :
 energy of atom  2       EATOM= -416.8732
 kinetic energy error for atom=    0.0088 (will be added to EATOM!!)
PAW_PBE O 08Apr2002                     :
 energy of atom  3       EATOM= -432.3788
 kinetic energy error for atom=    0.1156 (will be added to EATOM!!)
 
 
 POSCAR: Mn O La                                 
  positions in direct lattice
  No initial velocities read in
 exchange correlation table for  LEXCH =        8
   RHO(1)=    0.500       N(1)  =     2000
   RHO(2)=  100.500       N(2)  =     4000
 


--------------------------------------------------------------------------------------------------------


 ion  position               nearest neighbor table
   1  0.000  0.000  0.000-   3 2.79   4 2.79   5 2.79   5 2.79   4 2.79   5 2.79   3 2.79   4 2.79
                             3 2.79   4 2.79   5 2.79   3 2.79   2 3.41   2 3.41   2 3.41   2 3.41
   2  0.500  0.500  0.500-   3 1.97   4 1.97   5 1.97   3 1.97   4 1.97   5 1.97   1 3.41   1 3.41
                             1 3.41   1 3.41   1 3.41   1 3.41   1 3.41   1 3.41
   3  0.500  0.500  0.000-   2 1.97   2 1.97   1 2.79   1 2.79   1 2.79   1 2.79
   4  0.500  0.000  0.500-   2 1.97   2 1.97   1 2.79   1 2.79   1 2.79   1 2.79
   5  0.000  0.500  0.500-   2 1.97   2 1.97   1 2.79   1 2.79   1 2.79   1 2.79
 
  LATTYP: Found a simple cubic cell.
 ALAT       =     3.9396750000
  
  Lattice vectors:
  
 A1 = (   3.9396750000,   0.0000000000,   0.0000000000)
 A2 = (   0.0000000000,   3.9396750000,   0.0000000000)
 A3 = (   0.0000000000,   0.0000000000,   3.9396750000)


Analysis of symmetry for initial positions (statically):
=====================================================================
 Subroutine PRICEL returns:
 Original cell was already a primitive cell.
 

 Routine SETGRP: Setting up the symmetry group for a 
 simple cubic supercell.


 Subroutine GETGRP returns: Found 48 space group operations
 (whereof 48 operations were pure point group operations)
 out of a pool of 48 trial point group operations.


The static configuration has the point symmetry O_h .


Analysis of symmetry for dynamics (positions and initial velocities):
=====================================================================
 Subroutine PRICEL returns:
 Original cell was already a primitive cell.
 

 Routine SETGRP: Setting up the symmetry group for a 
 simple cubic supercell.


 Subroutine GETGRP returns: Found 48 space group operations
 (whereof 48 operations were pure point group operations)
 out of a pool of 48 trial point group operations.


The dynamic configuration has the point symmetry O_h .


Analysis of magnetic symmetry:
=====================================================================

 Subroutine MAGSYM returns: Found 48 space group operations
 (whereof 48 operations were pure point group operations)
 out of a pool of 48 trial space group operations
 (whereof 48 operations were pure point group operations)
 and found also     1 'primitive' translations


The magnetic configuration has the point symmetry O_h .
 
 
 KPOINTS: KPOINTS                                 

Automatic generation of k-mesh.
Space group operators:
 irot       det(A)        alpha          n_x          n_y          n_z        tau_x        tau_y        tau_z
    1     1.000000     0.000001     1.000000     0.000000     0.000000     0.000000     0.000000     0.000000
    2    -1.000000     0.000001     1.000000     0.000000     0.000000     0.000000     0.000000     0.000000
    3     1.000000   120.000000    -0.577350    -0.577350    -0.577350     0.000000     0.000000     0.000000
    4    -1.000000   120.000000    -0.577350    -0.577350    -0.577350     0.000000     0.000000     0.000000
    5     1.000000   120.000000     0.577350     0.577350     0.577350     0.000000     0.000000     0.000000
    6    -1.000000   120.000000     0.577350     0.577350     0.577350     0.000000     0.000000     0.000000
    7     1.000000    90.000000     0.000000     0.000000    -1.000000     0.000000     0.000000     0.000000
    8    -1.000000    90.000000     0.000000     0.000000    -1.000000     0.000000     0.000000     0.000000
    9     1.000000   180.000000     0.000000     0.707107     0.707107     0.000000     0.000000     0.000000
   10    -1.000000   180.000000     0.000000     0.707107     0.707107     0.000000     0.000000     0.000000
   11     1.000000    90.000000     0.000000     1.000000     0.000000     0.000000     0.000000     0.000000
   12    -1.000000    90.000000     0.000000     1.000000     0.000000     0.000000     0.000000     0.000000
   13     1.000000   180.000000     0.000000     0.000000     1.000000     0.000000     0.000000     0.000000
   14    -1.000000   180.000000     0.000000     0.000000     1.000000     0.000000     0.000000     0.000000
   15     1.000000   120.000000    -0.577350     0.577350     0.577350     0.000000     0.000000     0.000000
   16    -1.000000   120.000000    -0.577350     0.577350     0.577350     0.000000     0.000000     0.000000
   17     1.000000   120.000000    -0.577350     0.577350    -0.577350     0.000000     0.000000     0.000000
   18    -1.000000   120.000000    -0.577350     0.577350    -0.577350     0.000000     0.000000     0.000000
   19     1.000000    90.000000     0.000000     0.000000     1.000000     0.000000     0.000000     0.000000
   20    -1.000000    90.000000     0.000000     0.000000     1.000000     0.000000     0.000000     0.000000
   21     1.000000    90.000000    -1.000000     0.000000     0.000000     0.000000     0.000000     0.000000
   22    -1.000000    90.000000    -1.000000     0.000000     0.000000     0.000000     0.000000     0.000000
   23     1.000000   180.000000     0.707107     0.000000     0.707107     0.000000     0.000000     0.000000
   24    -1.000000   180.000000     0.707107     0.000000     0.707107     0.000000     0.000000     0.000000
   25     1.000000   120.000000     0.577350    -0.577350     0.577350     0.000000     0.000000     0.000000
   26    -1.000000   120.000000     0.577350    -0.577350     0.577350     0.000000     0.000000     0.000000
   27     1.000000   120.000000    -0.577350    -0.577350     0.577350     0.000000     0.000000     0.000000
   28    -1.000000   120.000000    -0.577350    -0.577350     0.577350     0.000000     0.000000     0.000000
   29     1.000000   180.000000     1.000000     0.000000     0.000000     0.000000     0.000000     0.000000
   30    -1.000000   180.000000     1.000000     0.000000     0.000000     0.000000     0.000000     0.000000
   31     1.000000    90.000000     0.000000    -1.000000     0.000000     0.000000     0.000000     0.000000
   32    -1.000000    90.000000     0.000000    -1.000000     0.000000     0.000000     0.000000     0.000000
   33     1.000000   180.000000     0.707107     0.707107     0.000000     0.000000     0.000000     0.000000
   34    -1.000000   180.000000     0.707107     0.707107     0.000000     0.000000     0.000000     0.000000
   35     1.000000    90.000000     1.000000     0.000000     0.000000     0.000000     0.000000     0.000000
   36    -1.000000    90.000000     1.000000     0.000000     0.000000     0.000000     0.000000     0.000000
   37     1.000000   120.000000     0.577350    -0.577350    -0.577350     0.000000     0.000000     0.000000
   38    -1.000000   120.000000     0.577350    -0.577350    -0.577350     0.000000     0.000000     0.000000
   39     1.000000   180.000000     0.000000     1.000000     0.000000     0.000000     0.000000     0.000000
   40    -1.000000   180.000000     0.000000     1.000000     0.000000     0.000000     0.000000     0.000000
   41     1.000000   120.000000     0.577350     0.577350    -0.577350     0.000000     0.000000     0.000000
   42    -1.000000   120.000000     0.577350     0.577350    -0.577350     0.000000     0.000000     0.000000
   43     1.000000   180.000000     0.000000    -0.707107     0.707107     0.000000     0.000000     0.000000
   44    -1.000000   180.000000     0.000000    -0.707107     0.707107     0.000000     0.000000     0.000000
   45     1.000000   180.000000     0.707107    -0.707107     0.000000     0.000000     0.000000     0.000000
   46    -1.000000   180.000000     0.707107    -0.707107     0.000000     0.000000     0.000000     0.000000
   47     1.000000   180.000000     0.707107     0.000000    -0.707107     0.000000     0.000000     0.000000
   48    -1.000000   180.000000     0.707107     0.000000    -0.707107     0.000000     0.000000     0.000000
 
 Subroutine IBZKPT returns following result:
 ===========================================
 
 Found     84 irreducible k-points:
 
 Following reciprocal coordinates:
            Coordinates               Weight
  0.000000  0.000000  0.000000      1.000000
  0.083333  0.000000  0.000000      6.000000
  0.166667  0.000000  0.000000      6.000000
  0.250000  0.000000  0.000000      6.000000
  0.333333  0.000000  0.000000      6.000000
  0.416667  0.000000  0.000000      6.000000
  0.500000  0.000000  0.000000      3.000000
  0.083333  0.083333  0.000000     12.000000
  0.166667  0.083333  0.000000     24.000000
  0.250000  0.083333  0.000000     24.000000
  0.333333  0.083333  0.000000     24.000000
  0.416667  0.083333  0.000000     24.000000
  0.500000  0.083333  0.000000     12.000000
  0.166667  0.166667  0.000000     12.000000
  0.250000  0.166667  0.000000     24.000000
  0.333333  0.166667  0.000000     24.000000
  0.416667  0.166667  0.000000     24.000000
  0.500000  0.166667  0.000000     12.000000
  0.250000  0.250000  0.000000     12.000000
  0.333333  0.250000  0.000000     24.000000
  0.416667  0.250000  0.000000     24.000000
  0.500000  0.250000  0.000000     12.000000
  0.333333  0.333333  0.000000     12.000000
  0.416667  0.333333  0.000000     24.000000
  0.500000  0.333333  0.000000     12.000000
  0.416667  0.416667  0.000000     12.000000
  0.500000  0.416667  0.000000     12.000000
  0.500000  0.500000  0.000000      3.000000
  0.083333  0.083333  0.083333      8.000000
  0.166667  0.083333  0.083333     24.000000
  0.250000  0.083333  0.083333     24.000000
  0.333333  0.083333  0.083333     24.000000
  0.416667  0.083333  0.083333     24.000000
  0.500000  0.083333  0.083333     12.000000
  0.166667  0.166667  0.083333     24.000000
  0.250000  0.166667  0.083333     48.000000
  0.333333  0.166667  0.083333     48.000000
  0.416667  0.166667  0.083333     48.000000
  0.500000  0.166667  0.083333     24.000000
  0.250000  0.250000  0.083333     24.000000
  0.333333  0.250000  0.083333     48.000000
  0.416667  0.250000  0.083333     48.000000
  0.500000  0.250000  0.083333     24.000000
  0.333333  0.333333  0.083333     24.000000
  0.416667  0.333333  0.083333     48.000000
  0.500000  0.333333  0.083333     24.000000
  0.416667  0.416667  0.083333     24.000000
  0.500000  0.416667  0.083333     24.000000
  0.500000  0.500000  0.083333      6.000000
  0.166667  0.166667  0.166667      8.000000
  0.250000  0.166667  0.166667     24.000000
  0.333333  0.166667  0.166667     24.000000
  0.416667  0.166667  0.166667     24.000000
  0.500000  0.166667  0.166667     12.000000
  0.250000  0.250000  0.166667     24.000000
  0.333333  0.250000  0.166667     48.000000
  0.416667  0.250000  0.166667     48.000000
  0.500000  0.250000  0.166667     24.000000
  0.333333  0.333333  0.166667     24.000000
  0.416667  0.333333  0.166667     48.000000
  0.500000  0.333333  0.166667     24.000000
  0.416667  0.416667  0.166667     24.000000
  0.500000  0.416667  0.166667     24.000000
  0.500000  0.500000  0.166667      6.000000
  0.250000  0.250000  0.250000      8.000000
  0.333333  0.250000  0.250000     24.000000
  0.416667  0.250000  0.250000     24.000000
  0.500000  0.250000  0.250000     12.000000
  0.333333  0.333333  0.250000     24.000000
  0.416667  0.333333  0.250000     48.000000
  0.500000  0.333333  0.250000     24.000000
  0.416667  0.416667  0.250000     24.000000
  0.500000  0.416667  0.250000     24.000000
  0.500000  0.500000  0.250000      6.000000
  0.333333  0.333333  0.333333      8.000000
  0.416667  0.333333  0.333333     24.000000
  0.500000  0.333333  0.333333     12.000000
  0.416667  0.416667  0.333333     24.000000
  0.500000  0.416667  0.333333     24.000000
  0.500000  0.500000  0.333333      6.000000
  0.416667  0.416667  0.416667      8.000000
  0.500000  0.416667  0.416667     12.000000
  0.500000  0.500000  0.416667      6.000000
  0.500000  0.500000  0.500000      1.000000
 
 Following cartesian coordinates:
            Coordinates               Weight
  0.000000  0.000000  0.000000      1.000000
  0.021152  0.000000  0.000000      6.000000
  0.042305  0.000000  0.000000      6.000000
  0.063457  0.000000  0.000000      6.000000
  0.084609  0.000000  0.000000      6.000000
  0.105762  0.000000  0.000000      6.000000
  0.126914  0.000000  0.000000      3.000000
  0.021152  0.021152  0.000000     12.000000
  0.042305  0.021152  0.000000     24.000000
  0.063457  0.021152  0.000000     24.000000
  0.084609  0.021152  0.000000     24.000000
  0.105762  0.021152  0.000000     24.000000
  0.126914  0.021152  0.000000     12.000000
  0.042305  0.042305  0.000000     12.000000
  0.063457  0.042305  0.000000     24.000000
  0.084609  0.042305  0.000000     24.000000
  0.105762  0.042305  0.000000     24.000000
  0.126914  0.042305  0.000000     12.000000
  0.063457  0.063457  0.000000     12.000000
  0.084609  0.063457  0.000000     24.000000
  0.105762  0.063457  0.000000     24.000000
  0.126914  0.063457  0.000000     12.000000
  0.084609  0.084609  0.000000     12.000000
  0.105762  0.084609  0.000000     24.000000
  0.126914  0.084609  0.000000     12.000000
  0.105762  0.105762  0.000000     12.000000
  0.126914  0.105762  0.000000     12.000000
  0.126914  0.126914  0.000000      3.000000
  0.021152  0.021152  0.021152      8.000000
  0.042305  0.021152  0.021152     24.000000
  0.063457  0.021152  0.021152     24.000000
  0.084609  0.021152  0.021152     24.000000
  0.105762  0.021152  0.021152     24.000000
  0.126914  0.021152  0.021152     12.000000
  0.042305  0.042305  0.021152     24.000000
  0.063457  0.042305  0.021152     48.000000
  0.084609  0.042305  0.021152     48.000000
  0.105762  0.042305  0.021152     48.000000
  0.126914  0.042305  0.021152     24.000000
  0.063457  0.063457  0.021152     24.000000
  0.084609  0.063457  0.021152     48.000000
  0.105762  0.063457  0.021152     48.000000
  0.126914  0.063457  0.021152     24.000000
  0.084609  0.084609  0.021152     24.000000
  0.105762  0.084609  0.021152     48.000000
  0.126914  0.084609  0.021152     24.000000
  0.105762  0.105762  0.021152     24.000000
  0.126914  0.105762  0.021152     24.000000
  0.126914  0.126914  0.021152      6.000000
  0.042305  0.042305  0.042305      8.000000
  0.063457  0.042305  0.042305     24.000000
  0.084609  0.042305  0.042305     24.000000
  0.105762  0.042305  0.042305     24.000000
  0.126914  0.042305  0.042305     12.000000
  0.063457  0.063457  0.042305     24.000000
  0.084609  0.063457  0.042305     48.000000
  0.105762  0.063457  0.042305     48.000000
  0.126914  0.063457  0.042305     24.000000
  0.084609  0.084609  0.042305     24.000000
  0.105762  0.084609  0.042305     48.000000
  0.126914  0.084609  0.042305     24.000000
  0.105762  0.105762  0.042305     24.000000
  0.126914  0.105762  0.042305     24.000000
  0.126914  0.126914  0.042305      6.000000
  0.063457  0.063457  0.063457      8.000000
  0.084609  0.063457  0.063457     24.000000
  0.105762  0.063457  0.063457     24.000000
  0.126914  0.063457  0.063457     12.000000
  0.084609  0.084609  0.063457     24.000000
  0.105762  0.084609  0.063457     48.000000
  0.126914  0.084609  0.063457     24.000000
  0.105762  0.105762  0.063457     24.000000
  0.126914  0.105762  0.063457     24.000000
  0.126914  0.126914  0.063457      6.000000
  0.084609  0.084609  0.084609      8.000000
  0.105762  0.084609  0.084609     24.000000
  0.126914  0.084609  0.084609     12.000000
  0.105762  0.105762  0.084609     24.000000
  0.126914  0.105762  0.084609     24.000000
  0.126914  0.126914  0.084609      6.000000
  0.105762  0.105762  0.105762      8.000000
  0.126914  0.105762  0.105762     12.000000
  0.126914  0.126914  0.105762      6.000000
  0.126914  0.126914  0.126914      1.000000
 


--------------------------------------------------------------------------------------------------------




 Dimension of arrays:
   k-points           NKPTS =     84   k-points in BZ     NKDIM =     84   number of bands    NBANDS=     27
   number of dos      NEDOS =    301   number of ions     NIONS =      5
   non local maximal  LDIM  =      8   non local SUM 2l+1 LMDIM =     32
   total plane-waves  NPLWV =  21952
   max r-space proj   IRMAX =      1   max aug-charges    IRDMAX=  18956
   dimension x,y,z NGX =    28 NGY =   28 NGZ =   28
   dimension x,y,z NGXF=    56 NGYF=   56 NGZF=   56
   support grid    NGXF=    56 NGYF=   56 NGZF=   56
   ions per type =               1   1   3
 NGX,Y,Z   is equivalent  to a cutoff of  11.82, 11.82, 11.82 a.u.
 NGXF,Y,Z  is equivalent  to a cutoff of  23.63, 23.63, 23.63 a.u.


 I would recommend the setting:
   dimension x,y,z NGX =    26 NGY =   26 NGZ =   26
 SYSTEM =  unknown system                          
 POSCAR =  Mn O La                                 

 Startparameter for this run:
   NWRITE =      2    write-flag & timer
   PREC   = acc       normal or accurate (medium, high low for compatibility)
   ISTART =      0    job   : 0-new  1-cont  2-samecut
   ICHARG =      2    charge: 1-file 2-atom 10-const
   ISPIN  =      2    spin polarized calculation?
   LNONCOLLINEAR =      F non collinear calculations
   LSORBIT =      F    spin-orbit coupling
   INIWAV =      1    electr: 0-lowe 1-rand  2-diag
   LASPH  =      F    aspherical Exc in radial PAW
   METAGGA=      F    non-selfconsistent MetaGGA calc.

 Electronic Relaxation 1
   ENCUT  =  400.0 eV  29.40 Ry    5.42 a.u.   6.42  6.42  6.42*2*pi/ulx,y,z
   ENINI  =  400.0     initial cutoff
   ENAUG  =  605.4 eV  augmentation charge cutoff
   NELM   =     60;   NELMIN=  5; NELMDL= -5     # of ELM steps 
   EDIFF  = 0.1E-03   stopping-criterion for ELM
   LREAL  =      F    real-space projection
   NLSPLINE    = F    spline interpolate recip. space projectors
   LCOMPAT=      F    compatible to vasp.4.4
   GGA_COMPAT  = T    GGA compatible to vasp.4.4-vasp.4.6
   LMAXPAW     = -100 max onsite density
   LMAXMIX     =    2 max onsite mixed and CHGCAR
   VOSKOWN=      0    Vosko Wilk Nusair interpolation
   ROPT   =    0.00000   0.00000   0.00000
 Ionic relaxation
   EDIFFG = 0.1E-02   stopping-criterion for IOM
   NSW    =     60    number of steps for IOM
   NBLOCK =      1;   KBLOCK =     60    inner block; outer block 
   IBRION =      2    ionic relax: 0-MD 1-quasi-New 2-CG
   NFREE  =      1    steps in history (QN), initial steepest desc. (CG)
   ISIF   =      3    stress and relaxation
   IWAVPR =     11    prediction:  0-non 1-charg 2-wave 3-comb
   ISYM   =      2    0-nonsym 1-usesym 2-fastsym
   LCORR  =      T    Harris-Foulkes like correction to forces

   POTIM  = 0.5000    time-step for ionic-motion
   TEIN   =    0.0    initial temperature
   TEBEG  =    0.0;   TEEND  =   0.0 temperature during run
   SMASS  =  -3.00    Nose mass-parameter (am)
   estimated Nose-frequenzy (Omega)   =  0.10E-29 period in steps =****** mass=  -0.355E-27a.u.
   SCALEE = 1.0000    scale energy and forces
   NPACO  =    256;   APACO  = 16.0  distance and # of slots for P.C.
   PSTRESS=    0.0 pullay stress

  Mass of Ions in am
   POMASS = 138.90 54.94 16.00
  Ionic Valenz
   ZVAL   =  11.00  7.00  6.00
  Atomic Wigner-Seitz radii
   RWIGS  =  -1.00 -1.00 -1.00
  virtual crystal weights 
   VCA    =   1.00  1.00  1.00
   NELECT =      36.0000    total number of electrons
   NUPDOWN=      -1.0000    fix difference up-down

 DOS related values:
   EMIN   =  10.00;   EMAX   =-10.00  energy-range for DOS
   EFERMI =   0.00
   ISMEAR =     1;   SIGMA  =   0.20  broadening in eV -4-tet -1-fermi 0-gaus

 Electronic relaxation 2 (details)
   IALGO  =     68    algorithm
   LDIAG  =      T    sub-space diagonalisation (order eigenvalues)
   LSUBROT=      T    optimize rotation matrix (better conditioning)
   TURBO    =      0    0=normal 1=particle mesh
   IRESTART =      0    0=no restart 2=restart with 2 vectors
   NREBOOT  =      0    no. of reboots
   NMIN     =      0    reboot dimension
   EREF     =   0.00    reference energy to select bands
   IMIX   =      4    mixing-type and parameters
     AMIX     =   0.40;   BMIX     =  1.00
     AMIX_MAG =   1.60;   BMIX_MAG =  1.00
     AMIN     =   0.10
     WC   =   100.;   INIMIX=   1;  MIXPRE=   1;  MAXMIX= -45

 Intra band minimization:
   WEIMIN = 0.0010     energy-eigenvalue tresh-hold
   EBREAK =  0.93E-06  absolut break condition
   DEPER  =   0.30     relativ break condition  

   TIME   =   0.40     timestep for ELM

  volume/ion in A,a.u.               =      12.23        82.53
  Fermi-wavevector in a.u.,A,eV,Ry     =   1.372088  2.592870 25.614671  1.882625
  Thomas-Fermi vector in A             =   2.497726
 
 Write flags
   LWAVE  =      F    write WAVECAR
   LCHARG =      T    write CHGCAR
   LVTOT  =      F    write LOCPOT, total local potential
   LVHAR  =      F    write LOCPOT, Hartree potential only
   LELF   =      F    write electronic localiz. function (ELF)
   LORBIT =     11    0 simple, 1 ext, 2 COOP (PROOUT)


 Dipole corrections
   LMONO  =      F    monopole corrections only (constant potential shift)
   LDIPOL =      F    correct potential (dipole corrections)
   IDIPOL =      0    1-x, 2-y, 3-z, 4-all directions 
   EPSILON=  1.0000000 bulk dielectric constant

 LDA+U is selected, type is set to LDAUTYPE =  2
   angular momentum for each species LDAUL =    -1    2   -1
   U (eV)           for each species LDAUU =   0.0  3.8  0.0
   J (eV)           for each species LDAUJ =   0.0  0.0  0.0
 Exchange correlation treatment:
   GGA     =    --    GGA type
   LEXCH   =     8    internal setting for exchange type
   VOSKOWN=      0    Vosko Wilk Nusair interpolation
   LHFCALC =     F    Hartree Fock is set to
   LHFONE  =     F    Hartree Fock one center treatment
   AEXX    =    0.0000 exact exchange contribution

 Linear response parameters
   LEPSILON=     F    determine dielectric tensor
   LRPA    =     F    only Hartree local field effects (RPA)
   LNABLA  =     F    use nabla operator in PAW spheres
   LVEL    =     F    velocity operator in full k-point grid
   LINTERFAST=   F  fast interpolation
   KINTER  =     0    interpolate to denser k-point grid
   CSHIFT  =0.1000    complex shift for real part using Kramers Kronig
   OMEGAMAX=  -1.0    maximum frequency
   DEG_THRESHOLD= 0.2000000E-02 threshold for treating states as degnerate
   RTIME   =    0.100 relaxation time in fs

 Orbital magnetization related:
   ORBITALMAG=     F  switch on orbital magnetization
   LCHIMAG   =     F  perturbation theory with respect to B field
   DQ        =  0.001000  dq finite difference perturbation B field



--------------------------------------------------------------------------------------------------------


 conjugate gradient relaxation of ions
 charge density and potential will be updated during run
 spin polarized calculation
 RMM-DIIS sequential band-by-band and
  variant of blocked Davidson during initial phase
 perform sub-space diagonalisation
    before iterative eigenvector-optimisation
 modified Broyden-mixing scheme, WC =      100.0
 initial mixing is a Kerker type mixing with AMIX =  0.4000 and BMIX =      1.0000
 Hartree-type preconditioning will be used
 using additional bands            9
 reciprocal scheme for non local part
 use partial core corrections
 calculate Harris-corrections to forces 
   (improved forces if not selfconsistent)
 use gradient corrections 
 use of overlap-Matrix (Vanderbilt PP)
 Methfessel and Paxton  Order N= 1 SIGMA  =   0.20


--------------------------------------------------------------------------------------------------------


  energy-cutoff  :      400.00
  volume of cell :       61.15
      direct lattice vectors                 reciprocal lattice vectors
     3.939675000  0.000000000  0.000000000     0.253828044  0.000000000  0.000000000
     0.000000000  3.939675000  0.000000000     0.000000000  0.253828044  0.000000000
     0.000000000  0.000000000  3.939675000     0.000000000  0.000000000  0.253828044

  length of vectors
     3.939675000  3.939675000  3.939675000     0.253828044  0.253828044  0.253828044


 
 k-points in units of 2pi/SCALE and weight: KPOINTS                                 
   0.00000000  0.00000000  0.00000000       0.001
   0.02115234  0.00000000  0.00000000       0.003
   0.04230467  0.00000000  0.00000000       0.003
   0.06345701  0.00000000  0.00000000       0.003
   0.08460935  0.00000000  0.00000000       0.003
   0.10576169  0.00000000  0.00000000       0.003
   0.12691402  0.00000000  0.00000000       0.002
   0.02115234  0.02115234  0.00000000       0.007
   0.04230467  0.02115234  0.00000000       0.014
   0.06345701  0.02115234  0.00000000       0.014
   0.08460935  0.02115234  0.00000000       0.014
   0.10576169  0.02115234  0.00000000       0.014
   0.12691402  0.02115234  0.00000000       0.007
   0.04230467  0.04230467  0.00000000       0.007
   0.06345701  0.04230467  0.00000000       0.014
   0.08460935  0.04230467  0.00000000       0.014
   0.10576169  0.04230467  0.00000000       0.014
   0.12691402  0.04230467  0.00000000       0.007
   0.06345701  0.06345701  0.00000000       0.007
   0.08460935  0.06345701  0.00000000       0.014
   0.10576169  0.06345701  0.00000000       0.014
   0.12691402  0.06345701  0.00000000       0.007
   0.08460935  0.08460935  0.00000000       0.007
   0.10576169  0.08460935  0.00000000       0.014
   0.12691402  0.08460935  0.00000000       0.007
   0.10576169  0.10576169  0.00000000       0.007
   0.12691402  0.10576169  0.00000000       0.007
   0.12691402  0.12691402  0.00000000       0.002
   0.02115234  0.02115234  0.02115234       0.005
   0.04230467  0.02115234  0.02115234       0.014
   0.06345701  0.02115234  0.02115234       0.014
   0.08460935  0.02115234  0.02115234       0.014
   0.10576169  0.02115234  0.02115234       0.014
   0.12691402  0.02115234  0.02115234       0.007
   0.04230467  0.04230467  0.02115234       0.014
   0.06345701  0.04230467  0.02115234       0.028
   0.08460935  0.04230467  0.02115234       0.028
   0.10576169  0.04230467  0.02115234       0.028
   0.12691402  0.04230467  0.02115234       0.014
   0.06345701  0.06345701  0.02115234       0.014
   0.08460935  0.06345701  0.02115234       0.028
   0.10576169  0.06345701  0.02115234       0.028
   0.12691402  0.06345701  0.02115234       0.014
   0.08460935  0.08460935  0.02115234       0.014
   0.10576169  0.08460935  0.02115234       0.028
   0.12691402  0.08460935  0.02115234       0.014
   0.10576169  0.10576169  0.02115234       0.014
   0.12691402  0.10576169  0.02115234       0.014
   0.12691402  0.12691402  0.02115234       0.003
   0.04230467  0.04230467  0.04230467       0.005
   0.06345701  0.04230467  0.04230467       0.014
   0.08460935  0.04230467  0.04230467       0.014
   0.10576169  0.04230467  0.04230467       0.014
   0.12691402  0.04230467  0.04230467       0.007
   0.06345701  0.06345701  0.04230467       0.014
   0.08460935  0.06345701  0.04230467       0.028
   0.10576169  0.06345701  0.04230467       0.028
   0.12691402  0.06345701  0.04230467       0.014
   0.08460935  0.08460935  0.04230467       0.014
   0.10576169  0.08460935  0.04230467       0.028
   0.12691402  0.08460935  0.04230467       0.014
   0.10576169  0.10576169  0.04230467       0.014
   0.12691402  0.10576169  0.04230467       0.014
   0.12691402  0.12691402  0.04230467       0.003
   0.06345701  0.06345701  0.06345701       0.005
   0.08460935  0.06345701  0.06345701       0.014
   0.10576169  0.06345701  0.06345701       0.014
   0.12691402  0.06345701  0.06345701       0.007
   0.08460935  0.08460935  0.06345701       0.014
   0.10576169  0.08460935  0.06345701       0.028
   0.12691402  0.08460935  0.06345701       0.014
   0.10576169  0.10576169  0.06345701       0.014
   0.12691402  0.10576169  0.06345701       0.014
   0.12691402  0.12691402  0.06345701       0.003
   0.08460935  0.08460935  0.08460935       0.005
   0.10576169  0.08460935  0.08460935       0.014
   0.12691402  0.08460935  0.08460935       0.007
   0.10576169  0.10576169  0.08460935       0.014
   0.12691402  0.10576169  0.08460935       0.014
   0.12691402  0.12691402  0.08460935       0.003
   0.10576169  0.10576169  0.10576169       0.005
   0.12691402  0.10576169  0.10576169       0.007
   0.12691402  0.12691402  0.10576169       0.003
   0.12691402  0.12691402  0.12691402       0.001
 
 k-points in reciprocal lattice and weights: KPOINTS                                 
   0.00000000  0.00000000  0.00000000       0.001
   0.08333333  0.00000000  0.00000000       0.003
   0.16666667  0.00000000  0.00000000       0.003
   0.25000000  0.00000000  0.00000000       0.003
   0.33333333  0.00000000  0.00000000       0.003
   0.41666667  0.00000000  0.00000000       0.003
   0.50000000  0.00000000  0.00000000       0.002
   0.08333333  0.08333333  0.00000000       0.007
   0.16666667  0.08333333  0.00000000       0.014
   0.25000000  0.08333333  0.00000000       0.014
   0.33333333  0.08333333  0.00000000       0.014
   0.41666667  0.08333333  0.00000000       0.014
   0.50000000  0.08333333  0.00000000       0.007
   0.16666667  0.16666667  0.00000000       0.007
   0.25000000  0.16666667  0.00000000       0.014
   0.33333333  0.16666667  0.00000000       0.014
   0.41666667  0.16666667  0.00000000       0.014
   0.50000000  0.16666667  0.00000000       0.007
   0.25000000  0.25000000  0.00000000       0.007
   0.33333333  0.25000000  0.00000000       0.014
   0.41666667  0.25000000  0.00000000       0.014
   0.50000000  0.25000000  0.00000000       0.007
   0.33333333  0.33333333  0.00000000       0.007
   0.41666667  0.33333333  0.00000000       0.014
   0.50000000  0.33333333  0.00000000       0.007
   0.41666667  0.41666667  0.00000000       0.007
   0.50000000  0.41666667  0.00000000       0.007
   0.50000000  0.50000000  0.00000000       0.002
   0.08333333  0.08333333  0.08333333       0.005
   0.16666667  0.08333333  0.08333333       0.014
   0.25000000  0.08333333  0.08333333       0.014
   0.33333333  0.08333333  0.08333333       0.014
   0.41666667  0.08333333  0.08333333       0.014
   0.50000000  0.08333333  0.08333333       0.007
   0.16666667  0.16666667  0.08333333       0.014
   0.25000000  0.16666667  0.08333333       0.028
   0.33333333  0.16666667  0.08333333       0.028
   0.41666667  0.16666667  0.08333333       0.028
   0.50000000  0.16666667  0.08333333       0.014
   0.25000000  0.25000000  0.08333333       0.014
   0.33333333  0.25000000  0.08333333       0.028
   0.41666667  0.25000000  0.08333333       0.028
   0.50000000  0.25000000  0.08333333       0.014
   0.33333333  0.33333333  0.08333333       0.014
   0.41666667  0.33333333  0.08333333       0.028
   0.50000000  0.33333333  0.08333333       0.014
   0.41666667  0.41666667  0.08333333       0.014
   0.50000000  0.41666667  0.08333333       0.014
   0.50000000  0.50000000  0.08333333       0.003
   0.16666667  0.16666667  0.16666667       0.005
   0.25000000  0.16666667  0.16666667       0.014
   0.33333333  0.16666667  0.16666667       0.014
   0.41666667  0.16666667  0.16666667       0.014
   0.50000000  0.16666667  0.16666667       0.007
   0.25000000  0.25000000  0.16666667       0.014
   0.33333333  0.25000000  0.16666667       0.028
   0.41666667  0.25000000  0.16666667       0.028
   0.50000000  0.25000000  0.16666667       0.014
   0.33333333  0.33333333  0.16666667       0.014
   0.41666667  0.33333333  0.16666667       0.028
   0.50000000  0.33333333  0.16666667       0.014
   0.41666667  0.41666667  0.16666667       0.014
   0.50000000  0.41666667  0.16666667       0.014
   0.50000000  0.50000000  0.16666667       0.003
   0.25000000  0.25000000  0.25000000       0.005
   0.33333333  0.25000000  0.25000000       0.014
   0.41666667  0.25000000  0.25000000       0.014
   0.50000000  0.25000000  0.25000000       0.007
   0.33333333  0.33333333  0.25000000       0.014
   0.41666667  0.33333333  0.25000000       0.028
   0.50000000  0.33333333  0.25000000       0.014
   0.41666667  0.41666667  0.25000000       0.014
   0.50000000  0.41666667  0.25000000       0.014
   0.50000000  0.50000000  0.25000000       0.003
   0.33333333  0.33333333  0.33333333       0.005
   0.41666667  0.33333333  0.33333333       0.014
   0.50000000  0.33333333  0.33333333       0.007
   0.41666667  0.41666667  0.33333333       0.014
   0.50000000  0.41666667  0.33333333       0.014
   0.50000000  0.50000000  0.33333333       0.003
   0.41666667  0.41666667  0.41666667       0.005
   0.50000000  0.41666667  0.41666667       0.007
   0.50000000  0.50000000  0.41666667       0.003
   0.50000000  0.50000000  0.50000000       0.001
 
 position of ions in fractional coordinates (direct lattice) 
   0.00000000  0.00000000  0.00000000
   0.50000064  0.50000064  0.50000064
   0.50000064  0.50000064  0.00000000
   0.50000064  0.00000000  0.50000064
   0.00000000  0.50000064  0.50000064
 
 position of ions in cartesian coordinates  (Angst):
   0.00000000  0.00000000  0.00000000
   1.96984002  1.96984002  1.96984002
   1.96984002  1.96984002  0.00000000
   1.96984002  0.00000000  1.96984002
   0.00000000  1.96984002  1.96984002
 


--------------------------------------------------------------------------------------------------------


 k-point  1 :   0.0000 0.0000 0.0000  plane waves:    1141
 k-point  2 :   0.0833 0.0000 0.0000  plane waves:    1113
 k-point  3 :   0.1667 0.0000 0.0000  plane waves:    1109
 k-point  4 :   0.2500 0.0000 0.0000  plane waves:    1117
 k-point  5 :   0.3333 0.0000 0.0000  plane waves:    1113
 k-point  6 :   0.4167 0.0000 0.0000  plane waves:    1125
 k-point  7 :   0.5000 0.0000 0.0000  plane waves:    1140
 k-point  8 :   0.0833 0.0833 0.0000  plane waves:    1115
 k-point  9 :   0.1667 0.0833 0.0000  plane waves:    1112
 k-point 10 :   0.2500 0.0833 0.0000  plane waves:    1122
 k-point 11 :   0.3333 0.0833 0.0000  plane waves:    1114
 k-point 12 :   0.4167 0.0833 0.0000  plane waves:    1116
 k-point 13 :   0.5000 0.0833 0.0000  plane waves:    1130
 k-point 14 :   0.1667 0.1667 0.0000  plane waves:    1113
 k-point 15 :   0.2500 0.1667 0.0000  plane waves:    1121
 k-point 16 :   0.3333 0.1667 0.0000  plane waves:    1123
 k-point 17 :   0.4167 0.1667 0.0000  plane waves:    1113
 k-point 18 :   0.5000 0.1667 0.0000  plane waves:    1106
 k-point 19 :   0.2500 0.2500 0.0000  plane waves:    1111
 k-point 20 :   0.3333 0.2500 0.0000  plane waves:    1118
 k-point 21 :   0.4167 0.2500 0.0000  plane waves:    1113
 k-point 22 :   0.5000 0.2500 0.0000  plane waves:    1104
 k-point 23 :   0.3333 0.3333 0.0000  plane waves:    1111
 k-point 24 :   0.4167 0.3333 0.0000  plane waves:    1106
 k-point 25 :   0.5000 0.3333 0.0000  plane waves:    1102
 k-point 26 :   0.4167 0.4167 0.0000  plane waves:    1101
 k-point 27 :   0.5000 0.4167 0.0000  plane waves:    1108
 k-point 28 :   0.5000 0.5000 0.0000  plane waves:    1092
 k-point 29 :   0.0833 0.0833 0.0833  plane waves:    1108
 k-point 30 :   0.1667 0.0833 0.0833  plane waves:    1110
 k-point 31 :   0.2500 0.0833 0.0833  plane waves:    1121
 k-point 32 :   0.3333 0.0833 0.0833  plane waves:    1107
 k-point 33 :   0.4167 0.0833 0.0833  plane waves:    1117
 k-point 34 :   0.5000 0.0833 0.0833  plane waves:    1124
 k-point 35 :   0.1667 0.1667 0.0833  plane waves:    1108
 k-point 36 :   0.2500 0.1667 0.0833  plane waves:    1115
 k-point 37 :   0.3333 0.1667 0.0833  plane waves:    1115
 k-point 38 :   0.4167 0.1667 0.0833  plane waves:    1121
 k-point 39 :   0.5000 0.1667 0.0833  plane waves:    1116
 k-point 40 :   0.2500 0.2500 0.0833  plane waves:    1108
 k-point 41 :   0.3333 0.2500 0.0833  plane waves:    1114
 k-point 42 :   0.4167 0.2500 0.0833  plane waves:    1118
 k-point 43 :   0.5000 0.2500 0.0833  plane waves:    1110
 k-point 44 :   0.3333 0.3333 0.0833  plane waves:    1115
 k-point 45 :   0.4167 0.3333 0.0833  plane waves:    1104
 k-point 46 :   0.5000 0.3333 0.0833  plane waves:    1106
 k-point 47 :   0.4167 0.4167 0.0833  plane waves:    1105
 k-point 48 :   0.5000 0.4167 0.0833  plane waves:    1108
 k-point 49 :   0.5000 0.5000 0.0833  plane waves:    1104
 k-point 50 :   0.1667 0.1667 0.1667  plane waves:    1093
 k-point 51 :   0.2500 0.1667 0.1667  plane waves:    1110
 k-point 52 :   0.3333 0.1667 0.1667  plane waves:    1115
 k-point 53 :   0.4167 0.1667 0.1667  plane waves:    1119
 k-point 54 :   0.5000 0.1667 0.1667  plane waves:    1120
 k-point 55 :   0.2500 0.2500 0.1667  plane waves:    1107
 k-point 56 :   0.3333 0.2500 0.1667  plane waves:    1112
 k-point 57 :   0.4167 0.2500 0.1667  plane waves:    1116
 k-point 58 :   0.5000 0.2500 0.1667  plane waves:    1112
 k-point 59 :   0.3333 0.3333 0.1667  plane waves:    1116
 k-point 60 :   0.4167 0.3333 0.1667  plane waves:    1107
 k-point 61 :   0.5000 0.3333 0.1667  plane waves:    1108
 k-point 62 :   0.4167 0.4167 0.1667  plane waves:    1106
 k-point 63 :   0.5000 0.4167 0.1667  plane waves:    1100
 k-point 64 :   0.5000 0.5000 0.1667  plane waves:    1120
 k-point 65 :   0.2500 0.2500 0.2500  plane waves:    1126
 k-point 66 :   0.3333 0.2500 0.2500  plane waves:    1115
 k-point 67 :   0.4167 0.2500 0.2500  plane waves:    1110
 k-point 68 :   0.5000 0.2500 0.2500  plane waves:    1106
 k-point 69 :   0.3333 0.3333 0.2500  plane waves:    1106
 k-point 70 :   0.4167 0.3333 0.2500  plane waves:    1102
 k-point 71 :   0.5000 0.3333 0.2500  plane waves:    1106
 k-point 72 :   0.4167 0.4167 0.2500  plane waves:    1103
 k-point 73 :   0.5000 0.4167 0.2500  plane waves:    1096
 k-point 74 :   0.5000 0.5000 0.2500  plane waves:    1104
 k-point 75 :   0.3333 0.3333 0.3333  plane waves:    1112
 k-point 76 :   0.4167 0.3333 0.3333  plane waves:    1099
 k-point 77 :   0.5000 0.3333 0.3333  plane waves:    1102
 k-point 78 :   0.4167 0.4167 0.3333  plane waves:    1098
 k-point 79 :   0.5000 0.4167 0.3333  plane waves:    1096
 k-point 80 :   0.5000 0.5000 0.3333  plane waves:    1096
 k-point 81 :   0.4167 0.4167 0.4167  plane waves:    1094
 k-point 82 :   0.5000 0.4167 0.4167  plane waves:    1084
 k-point 83 :   0.5000 0.5000 0.4167  plane waves:    1080
 k-point 84 :   0.5000 0.5000 0.5000  plane waves:    1088

 maximum number of plane-waves:      1141
 maximum index in each direction: 
   IXMAX=    6   IYMAX=    6   IZMAX=    6
   IXMIN=   -6   IYMIN=   -6   IZMIN=   -6

 NGX is ok and might be reduce to  26
 NGY is ok and might be reduce to  26
 NGZ is ok and might be reduce to  26

 total amount of memory used by VASP on root node   210056. kBytes
========================================================================

   base      :      30000. kBytes
   nonl-proj :      73699. kBytes
   grid      :      17687. kBytes
   one-center:        491. kBytes
   wavefun   :      88179. kBytes
 
 Broyden mixing: mesh for mixing (old mesh)
   NGX = 13   NGY = 13   NGZ = 13
  (NGX  = 56   NGY  = 56   NGZ  = 56)
  gives a total of   2197 points

 initial charge density was supplied:
 charge density of overlapping atoms calculated
 number of electron      36.0000000 magnetization      10.0000000
 keeping initial charge density in first step


--------------------------------------------------------------------------------------------------------


 Maximum index for augmentation-charges        18277 (set IRDMAX)


--------------------------------------------------------------------------------------------------------


 First call to EWALD:  gamma=   0.450
 Maximum number of real-space cells 3x 3x 3
 Maximum number of reciprocal cells 3x 3x 3

    FEWALD:  cpu time    0.00: real time    0.00


----------------------------------------- Iteration    1(   1)  ---------------------------------------


    POTLOK:  cpu time    0.48: real time    0.48
atom =   2  type =  2  l = 2
 
 onsite density matrix
 
spin component  1
 
  0.8989  0.0000  0.0000  0.0000  0.0000
  0.0000  0.8989  0.0000  0.0000  0.0000
  0.0000  0.0000  0.8989  0.0000  0.0000
  0.0000  0.0000  0.0000  0.8989  0.0000
  0.0000  0.0000  0.0000  0.0000  0.8989
 
spin component  2
 
  0.1498  0.0000  0.0000  0.0000  0.0000
  0.0000  0.1498  0.0000  0.0000  0.0000
  0.0000  0.0000  0.1498  0.0000  0.0000
  0.0000  0.0000  0.0000  0.1498  0.0000
  0.0000  0.0000  0.0000  0.0000  0.1498
 
 occupancies and eigenvectors
 
  o =  0.1498  v =  0.0000  0.0000  0.0000  0.0000  0.0000  0.0000  0.0000  1.0000  0.0000  0.0000      0.0000  0.0000  0.0000  0.0000  0.0000  0.0000  0.0000  0.0000  0.0000  0.0000
  o =  0.1498  v =  0.0000  0.0000  0.0000  0.0000  0.0000  1.0000  0.0000  0.0000  0.0000  0.0000      0.0000  0.0000  0.0000  0.0000  0.0000  0.0000  0.0000  0.0000  0.0000  0.0000
  o =  0.1498  v =  0.0000  0.0000  0.0000  0.0000  0.0000  0.0000  0.0000  0.0000  0.0000  1.0000      0.0000  0.0000  0.0000  0.0000  0.0000  0.0000  0.0000  0.0000  0.0000  0.0000
  o =  0.1498  v =  0.0000  0.0000  0.0000  0.0000  0.0000  0.0000  1.0000  0.0000  0.0000  0.0000      0.0000  0.0000  0.0000  0.0000  0.0000  0.0000  0.0000  0.0000  0.0000  0.0000
  o =  0.1498  v =  0.0000  0.0000  0.0000  0.0000  0.0000  0.0000  0.0000  0.0000  1.0000  0.0000      0.0000  0.0000  0.0000  0.0000  0.0000  0.0000  0.0000  0.0000  0.0000  0.0000
  o =  0.8989  v =  0.0000  1.0000  0.0000  0.0000  0.0000  0.0000  0.0000  0.0000  0.0000  0.0000      0.0000  0.0000  0.0000  0.0000  0.0000  0.0000  0.0000  0.0000  0.0000  0.0000
  o =  0.8989  v =  0.0000  0.0000  0.0000  1.0000  0.0000  0.0000  0.0000  0.0000  0.0000  0.0000      0.0000  0.0000  0.0000  0.0000  0.0000  0.0000  0.0000  0.0000  0.0000  0.0000
  o =  0.8989  v =  1.0000  0.0000  0.0000  0.0000  0.0000  0.0000  0.0000  0.0000  0.0000  0.0000      0.0000  0.0000  0.0000  0.0000  0.0000  0.0000  0.0000  0.0000  0.0000  0.0000
  o =  0.8989  v =  0.0000  0.0000  0.0000  0.0000  1.0000  0.0000  0.0000  0.0000  0.0000  0.0000      0.0000  0.0000  0.0000  0.0000  0.0000  0.0000  0.0000  0.0000  0.0000  0.0000
  o =  0.8989  v =  0.0000  0.0000  1.0000  0.0000  0.0000  0.0000  0.0000  0.0000  0.0000  0.0000      0.0000  0.0000  0.0000  0.0000  0.0000  0.0000  0.0000  0.0000  0.0000  0.0000
    SETDIJ:  cpu time    0.07: real time    0.07
     EDDAV:  cpu time   54.57: real time   54.67
       DOS:  cpu time    0.03: real time    0.03
    --------------------------------------------
      LOOP:  cpu time   55.15: real time   55.25

 eigenvalue-minimisations  :  9912
 total energy-change (2. order) : 0.3427041E+03  (-0.1300179E+04)
 number of electron      36.0000000 magnetization      10.0000000
 augmentation part       36.0000000 magnetization      10.0000000

 Free energy of the ion-electron system (eV)
  ---------------------------------------------------
  alpha Z        PSCENC =       158.85908541
  Ewald energy   TEWEN  =     -2362.90209232
  -1/2 Hartree   DENC   =      -436.80022029
  -exchange  EXHF       =         0.00000000
  -V(xc)+E(xc)   XCENC  =       106.52717585
  PAW double counting   =      1537.09298091    -1519.36497436
  entropy T*S    EENTRO =        -0.00286574
  eigenvalues    EBANDS =       280.42376862
  atomic energy  EATOM  =      2578.87124594
  ---------------------------------------------------
  free energy    TOTEN  =       342.70410402 eV

  energy without entropy =      342.70696975  energy(sigma->0) =      342.70505926


--------------------------------------------------------------------------------------------------------




----------------------------------------- Iteration    1(   2)  ---------------------------------------


     EDDAV:  cpu time   53.16: real time   53.26
       DOS:  cpu time    0.03: real time    0.03
    --------------------------------------------
      LOOP:  cpu time   53.19: real time   53.29

 eigenvalue-minimisations  :  9548
 total energy-change (2. order) :-0.3010608E+03  (-0.2679186E+03)
 number of electron      36.0000000 magnetization      10.0000000
 augmentation part       36.0000000 magnetization      10.0000000

 Free energy of the ion-electron system (eV)
  ---------------------------------------------------
  alpha Z        PSCENC =       158.85908541
  Ewald energy   TEWEN  =     -2362.90209232
  -1/2 Hartree   DENC   =      -436.80022029
  -exchange  EXHF       =         0.00000000
  -V(xc)+E(xc)   XCENC  =       106.52717585
  PAW double counting   =      1537.09298091    -1519.36497436
  entropy T*S    EENTRO =        -0.00105337
  eigenvalues    EBANDS =       -20.63880357
  atomic energy  EATOM  =      2578.87124594
  ---------------------------------------------------
  free energy    TOTEN  =        41.64334419 eV

  energy without entropy =       41.64439757  energy(sigma->0) =       41.64369532


--------------------------------------------------------------------------------------------------------




----------------------------------------- Iteration    1(   3)  ---------------------------------------


     EDDAV:  cpu time   67.73: real time   67.88
       DOS:  cpu time    0.04: real time    0.04
    --------------------------------------------
      LOOP:  cpu time   67.77: real time   67.92

 eigenvalue-minimisations  : 13364
 total energy-change (2. order) :-0.7830749E+02  (-0.6755845E+02)
 number of electron      36.0000000 magnetization      10.0000000
 augmentation part       36.0000000 magnetization      10.0000000

 Free energy of the ion-electron system (eV)
  ---------------------------------------------------
  alpha Z        PSCENC =       158.85908541
  Ewald energy   TEWEN  =     -2362.90209232
  -1/2 Hartree   DENC   =      -436.80022029
  -exchange  EXHF       =         0.00000000
  -V(xc)+E(xc)   XCENC  =       106.52717585
  PAW double counting   =      1537.09298091    -1519.36497436
  entropy T*S    EENTRO =         0.00812302
  eigenvalues    EBANDS =       -98.95546509
  atomic energy  EATOM  =      2578.87124594
  ---------------------------------------------------
  free energy    TOTEN  =       -36.66414094 eV

  energy without entropy =      -36.67226396  energy(sigma->0) =      -36.66684861


--------------------------------------------------------------------------------------------------------




----------------------------------------- Iteration    1(   4)  ---------------------------------------


     EDDAV:  cpu time   77.35: real time   77.50
       DOS:  cpu time    0.03: real time    0.04
    --------------------------------------------
      LOOP:  cpu time   77.39: real time   77.53

 eigenvalue-minimisations  : 15850
 total energy-change (2. order) :-0.6913835E+01  (-0.6560933E+01)
 number of electron      36.0000000 magnetization      10.0000000
 augmentation part       36.0000000 magnetization      10.0000000

 Free energy of the ion-electron system (eV)
  ---------------------------------------------------
  alpha Z        PSCENC =       158.85908541
  Ewald energy   TEWEN  =     -2362.90209232
  -1/2 Hartree   DENC   =      -436.80022029
  -exchange  EXHF       =         0.00000000
  -V(xc)+E(xc)   XCENC  =       106.52717585
  PAW double counting   =      1537.09298091    -1519.36497436
  entropy T*S    EENTRO =         0.01312890
  eigenvalues    EBANDS =      -105.87430613
  atomic energy  EATOM  =      2578.87124594
  ---------------------------------------------------
  free energy    TOTEN  =       -43.57797609 eV

  energy without entropy =      -43.59110499  energy(sigma->0) =      -43.58235239


--------------------------------------------------------------------------------------------------------




----------------------------------------- Iteration    1(   5)  ---------------------------------------


     EDDAV:  cpu time   69.92: real time   70.06
       DOS:  cpu time    0.04: real time    0.04
    CHARGE:  cpu time    7.48: real time    7.50
    MIXING:  cpu time    0.00: real time    0.01
    --------------------------------------------
      LOOP:  cpu time   77.45: real time   77.60

 eigenvalue-minimisations  : 13990
 total energy-change (2. order) :-0.3086679E+00  (-0.3049151E+00)
 number of electron      36.0000043 magnetization       3.1091535
 augmentation part        3.1465778 magnetization       1.3478416

 Broyden mixing:
  rms(total) = 0.21795E+01    rms(broyden)= 0.21785E+01
  rms(prec ) = 0.46992E+01
  weight for this iteration     100.00

 Free energy of the ion-electron system (eV)
  ---------------------------------------------------
  alpha Z        PSCENC =       158.85908541
  Ewald energy   TEWEN  =     -2362.90209232
  -1/2 Hartree   DENC   =      -436.80022029
  -exchange  EXHF       =         0.00000000
  -V(xc)+E(xc)   XCENC  =       106.52717585
  PAW double counting   =      1537.09298091    -1519.36497436
  entropy T*S    EENTRO =         0.01323334
  eigenvalues    EBANDS =      -106.18307842
  atomic energy  EATOM  =      2578.87124594
  ---------------------------------------------------
  free energy    TOTEN  =       -43.88664395 eV

  energy without entropy =      -43.89987729  energy(sigma->0) =      -43.89105506


--------------------------------------------------------------------------------------------------------




----------------------------------------- Iteration    1(   6)  ---------------------------------------


    POTLOK:  cpu time    0.47: real time    0.47
atom =   2  type =  2  l = 2
 
 onsite density matrix
 
spin component  1
 
  0.9434  0.0000  0.0000  0.0000  0.0000
  0.0000  0.9434  0.0000  0.0000  0.0000
  0.0000  0.0000  0.5827  0.0000  0.0000
  0.0000  0.0000  0.0000  0.9434  0.0000
  0.0000  0.0000  0.0000  0.0000  0.5827
 
spin component  2
 
  0.1178  0.0000  0.0000  0.0000  0.0000
  0.0000  0.1178  0.0000  0.0000  0.0000
  0.0000  0.0000  0.1894  0.0000  0.0000
  0.0000  0.0000  0.0000  0.1178  0.0000
  0.0000  0.0000  0.0000  0.0000  0.1894
 
 occupancies and eigenvectors
 
  o =  0.1178  v =  0.0000  0.0000  0.0000  0.0000  0.0000  1.0000  0.0000  0.0000  0.0000  0.0000      0.0000  0.0000  0.0000  0.0000  0.0000  0.0000  0.0000  0.0000  0.0000  0.0000
  o =  0.1178  v =  0.0000  0.0000  0.0000  0.0000  0.0000  0.0000 -0.7868  0.0000 -0.6173  0.0000      0.0000  0.0000  0.0000  0.0000  0.0000  0.0000  0.0000  0.0000  0.0000  0.0000
  o =  0.1178  v =  0.0000  0.0000  0.0000  0.0000  0.0000  0.0000  0.6173  0.0000 -0.7868  0.0000      0.0000  0.0000  0.0000  0.0000  0.0000  0.0000  0.0000  0.0000  0.0000  0.0000
  o =  0.1894  v =  0.0000  0.0000  0.0000  0.0000  0.0000  0.0000  0.0000 -0.0402  0.0000  0.9992      0.0000  0.0000  0.0000  0.0000  0.0000  0.0000  0.0000  0.0000  0.0000  0.0000
  o =  0.1894  v =  0.0000  0.0000  0.0000  0.0000  0.0000  0.0000  0.0000  0.9992  0.0000  0.0402      0.0000  0.0000  0.0000  0.0000  0.0000  0.0000  0.0000  0.0000  0.0000  0.0000
  o =  0.5827  v =  0.0000  0.0000  1.0000  0.0000 -0.0038  0.0000  0.0000  0.0000  0.0000  0.0000      0.0000  0.0000  0.0000  0.0000  0.0000  0.0000  0.0000  0.0000  0.0000  0.0000
  o =  0.5827  v =  0.0000  0.0000  0.0038  0.0000  1.0000  0.0000  0.0000  0.0000  0.0000  0.0000      0.0000  0.0000  0.0000  0.0000  0.0000  0.0000  0.0000  0.0000  0.0000  0.0000
  o =  0.9434  v =  0.0000  0.5242  0.0000  0.8516  0.0000  0.0000  0.0000  0.0000  0.0000  0.0000      0.0000  0.0000  0.0000  0.0000  0.0000  0.0000  0.0000  0.0000  0.0000  0.0000
  o =  0.9434  v =  0.0000  0.8516  0.0000 -0.5242  0.0000  0.0000  0.0000  0.0000  0.0000  0.0000      0.0000  0.0000  0.0000  0.0000  0.0000  0.0000  0.0000  0.0000  0.0000  0.0000
  o =  0.9434  v =  1.0000  0.0000  0.0000  0.0000  0.0000  0.0000  0.0000  0.0000  0.0000  0.0000      0.0000  0.0000  0.0000  0.0000  0.0000  0.0000  0.0000  0.0000  0.0000  0.0000
    SETDIJ:  cpu time    0.07: real time    0.07
    EDDIAG:  cpu time   14.89: real time   14.92
  RMM-DIIS:  cpu time   55.89: real time   55.99
    ORTHCH:  cpu time    0.27: real time    0.27
       DOS:  cpu time    0.03: real time    0.03
    CHARGE:  cpu time    7.52: real time    7.53
    MIXING:  cpu time    0.00: real time    0.01
    --------------------------------------------
      LOOP:  cpu time   79.15: real time   79.30

 eigenvalue-minimisations  : 12017
 total energy-change (2. order) : 0.3603380E+01  (-0.7587160E+01)
 number of electron      36.0000031 magnetization       3.9020681
 augmentation part        3.7801822 magnetization       2.7323016

 Broyden mixing:
  rms(total) = 0.99872E+00    rms(broyden)= 0.99812E+00
  rms(prec ) = 0.16248E+01
  weight for this iteration     100.00

 eigenvalues of (default mixing * dielectric matrix)
  average eigenvalue GAMMA=   0.6894
  0.6894

 Free energy of the ion-electron system (eV)
  ---------------------------------------------------
  alpha Z        PSCENC =       158.85908541
  Ewald energy   TEWEN  =     -2362.90209232
  -1/2 Hartree   DENC   =      -464.85148172
  -exchange  EXHF       =         0.00000000
  -V(xc)+E(xc)   XCENC  =       107.41746264
  PAW double counting   =      1635.51361605    -1618.27123191
  entropy T*S    EENTRO =         0.00182064
  eigenvalues    EBANDS =       -74.92168876
  atomic energy  EATOM  =      2578.87124594
  ---------------------------------------------------
  free energy    TOTEN  =       -40.28326402 eV

  energy without entropy =      -40.28508466  energy(sigma->0) =      -40.28387090


--------------------------------------------------------------------------------------------------------




----------------------------------------- Iteration    1(   7)  ---------------------------------------


    POTLOK:  cpu time    0.48: real time    0.48
atom =   2  type =  2  l = 2
 
 onsite density matrix
 
spin component  1
 
  0.9177  0.0000  0.0000  0.0000  0.0000
  0.0000  0.9177  0.0000  0.0000  0.0000
  0.0000  0.0000  0.7355  0.0000  0.0000
  0.0000  0.0000  0.0000  0.9177  0.0000
  0.0000  0.0000  0.0000  0.0000  0.7355
 
spin component  2
 
  0.0718  0.0000  0.0000  0.0000  0.0000
  0.0000  0.0718  0.0000  0.0000  0.0000
  0.0000  0.0000  0.2079  0.0000  0.0000
  0.0000  0.0000  0.0000  0.0718  0.0000
  0.0000  0.0000  0.0000  0.0000  0.2079
 
 occupancies and eigenvectors
 
  o =  0.0718  v =  0.0000  0.0000  0.0000  0.0000  0.0000  1.0000  0.0000  0.0000  0.0000  0.0000      0.0000  0.0000  0.0000  0.0000  0.0000  0.0000  0.0000  0.0000  0.0000  0.0000
  o =  0.0718  v =  0.0000  0.0000  0.0000  0.0000  0.0000  0.0000  0.2993  0.0000 -0.9542  0.0000      0.0000  0.0000  0.0000  0.0000  0.0000  0.0000  0.0000  0.0000  0.0000  0.0000
  o =  0.0718  v =  0.0000  0.0000  0.0000  0.0000  0.0000  0.0000  0.9542  0.0000  0.2993  0.0000      0.0000  0.0000  0.0000  0.0000  0.0000  0.0000  0.0000  0.0000  0.0000  0.0000
  o =  0.2079  v =  0.0000  0.0000  0.0000  0.0000  0.0000  0.0000  0.0000 -0.9993  0.0000 -0.0362      0.0000  0.0000  0.0000  0.0000  0.0000  0.0000  0.0000  0.0000  0.0000  0.0000
  o =  0.2079  v =  0.0000  0.0000  0.0000  0.0000  0.0000  0.0000  0.0000 -0.0362  0.0000  0.9993      0.0000  0.0000  0.0000  0.0000  0.0000  0.0000  0.0000  0.0000  0.0000  0.0000
  o =  0.7355  v =  0.0000  0.0000 -0.5157  0.0000  0.8568  0.0000  0.0000  0.0000  0.0000  0.0000      0.0000  0.0000  0.0000  0.0000  0.0000  0.0000  0.0000  0.0000  0.0000  0.0000
  o =  0.7355  v =  0.0000  0.0000  0.8568  0.0000  0.5157  0.0000  0.0000  0.0000  0.0000  0.0000      0.0000  0.0000  0.0000  0.0000  0.0000  0.0000  0.0000  0.0000  0.0000  0.0000
  o =  0.9177  v =  0.0000  0.9821  0.0000 -0.1883  0.0000  0.0000  0.0000  0.0000  0.0000  0.0000      0.0000  0.0000  0.0000  0.0000  0.0000  0.0000  0.0000  0.0000  0.0000  0.0000
  o =  0.9177  v =  1.0000  0.0000  0.0000  0.0000  0.0000  0.0000  0.0000  0.0000  0.0000  0.0000      0.0000  0.0000  0.0000  0.0000  0.0000  0.0000  0.0000  0.0000  0.0000  0.0000
  o =  0.9177  v =  0.0000  0.1883  0.0000  0.9821  0.0000  0.0000  0.0000  0.0000  0.0000  0.0000      0.0000  0.0000  0.0000  0.0000  0.0000  0.0000  0.0000  0.0000  0.0000  0.0000
    SETDIJ:  cpu time    0.07: real time    0.08
    EDDIAG:  cpu time   14.98: real time   15.01
  RMM-DIIS:  cpu time   51.01: real time   51.10
    ORTHCH:  cpu time    0.27: real time    0.27
       DOS:  cpu time    0.03: real time    0.03
    CHARGE:  cpu time    7.55: real time    7.56
    MIXING:  cpu time    0.01: real time    0.01
    --------------------------------------------
      LOOP:  cpu time   74.40: real time   74.54

 eigenvalue-minimisations  : 10649
 total energy-change (2. order) : 0.7391801E+00  (-0.7727270E+00)
 number of electron      36.0000032 magnetization       3.9680286
 augmentation part        3.4735713 magnetization       2.7475002

 Broyden mixing:
  rms(total) = 0.34374E+00    rms(broyden)= 0.34369E+00
  rms(prec ) = 0.55383E+00
  weight for this iteration     100.00

 eigenvalues of (default mixing * dielectric matrix)
  average eigenvalue GAMMA=   0.7663
  0.7663  0.7663

 Free energy of the ion-electron system (eV)
  ---------------------------------------------------
  alpha Z        PSCENC =       158.85908541
  Ewald energy   TEWEN  =     -2362.90209232
  -1/2 Hartree   DENC   =      -464.71832593
  -exchange  EXHF       =         0.00000000
  -V(xc)+E(xc)   XCENC  =       108.11291309
  PAW double counting   =      1656.54208358    -1641.98365321
  entropy T*S    EENTRO =         0.00186028
  eigenvalues    EBANDS =       -72.32720075
  atomic energy  EATOM  =      2578.87124594
  ---------------------------------------------------
  free energy    TOTEN  =       -39.54408390 eV

  energy without entropy =      -39.54594418  energy(sigma->0) =      -39.54470399


--------------------------------------------------------------------------------------------------------




----------------------------------------- Iteration    1(   8)  ---------------------------------------


    POTLOK:  cpu time    0.47: real time    0.48
atom =   2  type =  2  l = 2
 
 onsite density matrix
 
spin component  1
 
  0.9335  0.0000  0.0000  0.0000  0.0000
  0.0000  0.9335  0.0000  0.0000  0.0000
  0.0000  0.0000  0.7315  0.0000  0.0000
  0.0000  0.0000  0.0000  0.9335  0.0000
  0.0000  0.0000  0.0000  0.0000  0.7315
 
spin component  2
 
  0.0601  0.0000  0.0000  0.0000  0.0000
  0.0000  0.0601  0.0000  0.0000  0.0000
  0.0000  0.0000  0.2172  0.0000  0.0000
  0.0000  0.0000  0.0000  0.0601  0.0000
  0.0000  0.0000  0.0000  0.0000  0.2172
 
 occupancies and eigenvectors
 
  o =  0.0601  v =  0.0000  0.0000  0.0000  0.0000  0.0000  0.0000 -0.5590  0.0000  0.8291  0.0000      0.0000  0.0000  0.0000  0.0000  0.0000  0.0000  0.0000  0.0000  0.0000  0.0000
  o =  0.0601  v =  0.0000  0.0000  0.0000  0.0000  0.0000  0.0000 -0.8291  0.0000 -0.5590  0.0000      0.0000  0.0000  0.0000  0.0000  0.0000  0.0000  0.0000  0.0000  0.0000  0.0000
  o =  0.0601  v =  0.0000  0.0000  0.0000  0.0000  0.0000  1.0000  0.0000  0.0000  0.0000  0.0000      0.0000  0.0000  0.0000  0.0000  0.0000  0.0000  0.0000  0.0000  0.0000  0.0000
  o =  0.2172  v =  0.0000  0.0000  0.0000  0.0000  0.0000  0.0000  0.0000 -0.9784  0.0000  0.2068      0.0000  0.0000  0.0000  0.0000  0.0000  0.0000  0.0000  0.0000  0.0000  0.0000
  o =  0.2172  v =  0.0000  0.0000  0.0000  0.0000  0.0000  0.0000  0.0000  0.2068  0.0000  0.9784      0.0000  0.0000  0.0000  0.0000  0.0000  0.0000  0.0000  0.0000  0.0000  0.0000
  o =  0.7315  v =  0.0000  0.0000  0.9668  0.0000  0.2554  0.0000  0.0000  0.0000  0.0000  0.0000      0.0000  0.0000  0.0000  0.0000  0.0000  0.0000  0.0000  0.0000  0.0000  0.0000
  o =  0.7315  v =  0.0000  0.0000 -0.2554  0.0000  0.9668  0.0000  0.0000  0.0000  0.0000  0.0000      0.0000  0.0000  0.0000  0.0000  0.0000  0.0000  0.0000  0.0000  0.0000  0.0000
  o =  0.9335  v =  0.0000  0.7826  0.0000 -0.6226  0.0000  0.0000  0.0000  0.0000  0.0000  0.0000      0.0000  0.0000  0.0000  0.0000  0.0000  0.0000  0.0000  0.0000  0.0000  0.0000
  o =  0.9335  v =  0.0000  0.6226  0.0000  0.7826  0.0000  0.0000  0.0000  0.0000  0.0000  0.0000      0.0000  0.0000  0.0000  0.0000  0.0000  0.0000  0.0000  0.0000  0.0000  0.0000
  o =  0.9335  v =  1.0000  0.0000  0.0000  0.0000  0.0000  0.0000  0.0000  0.0000  0.0000  0.0000      0.0000  0.0000  0.0000  0.0000  0.0000  0.0000  0.0000  0.0000  0.0000  0.0000
    SETDIJ:  cpu time    0.07: real time    0.08
    EDDIAG:  cpu time   14.97: real time   15.00
  RMM-DIIS:  cpu time   57.29: real time   57.40
    ORTHCH:  cpu time    0.27: real time    0.27
       DOS:  cpu time    0.03: real time    0.03
    CHARGE:  cpu time    7.54: real time    7.55
    MIXING:  cpu time    0.01: real time    0.01
    --------------------------------------------
      LOOP:  cpu time   80.66: real time   80.81

 eigenvalue-minimisations  : 12070
 total energy-change (2. order) :-0.2005236E+00  (-0.2309967E+00)
 number of electron      36.0000032 magnetization       4.0141653
 augmentation part        3.3882326 magnetization       2.7645719

 Broyden mixing:
  rms(total) = 0.19681E+00    rms(broyden)= 0.19674E+00
  rms(prec ) = 0.32153E+00
  weight for this iteration     100.00

 eigenvalues of (default mixing * dielectric matrix)
  average eigenvalue GAMMA=   0.8932
  0.9975  0.9975  0.6845

 Free energy of the ion-electron system (eV)
  ---------------------------------------------------
  alpha Z        PSCENC =       158.85908541
  Ewald energy   TEWEN  =     -2362.90209232
  -1/2 Hartree   DENC   =      -462.38667219
  -exchange  EXHF       =         0.00000000
  -V(xc)+E(xc)   XCENC  =       107.85140128
  PAW double counting   =      1671.21804634    -1657.36474578
  entropy T*S    EENTRO =         0.00246915
  eigenvalues    EBANDS =       -73.89334530
  atomic energy  EATOM  =      2578.87124594
  ---------------------------------------------------
  free energy    TOTEN  =       -39.74460746 eV

  energy without entropy =      -39.74707661  energy(sigma->0) =      -39.74543051


--------------------------------------------------------------------------------------------------------




----------------------------------------- Iteration    1(   9)  ---------------------------------------


    POTLOK:  cpu time    0.47: real time    0.48
atom =   2  type =  2  l = 2
 
 onsite density matrix
 
spin component  1
 
  0.9549  0.0000  0.0000  0.0000  0.0000
  0.0000  0.9549  0.0000  0.0000  0.0000
  0.0000  0.0000  0.7493  0.0000  0.0000
  0.0000  0.0000  0.0000  0.9549  0.0000
  0.0000  0.0000  0.0000  0.0000  0.7493
 
spin component  2
 
  0.0451  0.0000  0.0000  0.0000  0.0000
  0.0000  0.0451  0.0000  0.0000  0.0000
  0.0000  0.0000  0.1901  0.0000  0.0000
  0.0000  0.0000  0.0000  0.0451  0.0000
  0.0000  0.0000  0.0000  0.0000  0.1901
 
 occupancies and eigenvectors
 
  o =  0.0451  v =  0.0000  0.0000  0.0000  0.0000  0.0000  1.0000  0.0000  0.0000  0.0000  0.0000      0.0000  0.0000  0.0000  0.0000  0.0000  0.0000  0.0000  0.0000  0.0000  0.0000
  o =  0.0451  v =  0.0000  0.0000  0.0000  0.0000  0.0000  0.0000 -0.0698  0.0000 -0.9976  0.0000      0.0000  0.0000  0.0000  0.0000  0.0000  0.0000  0.0000  0.0000  0.0000  0.0000
  o =  0.0451  v =  0.0000  0.0000  0.0000  0.0000  0.0000  0.0000 -0.9976  0.0000  0.0698  0.0000      0.0000  0.0000  0.0000  0.0000  0.0000  0.0000  0.0000  0.0000  0.0000  0.0000
  o =  0.1901  v =  0.0000  0.0000  0.0000  0.0000  0.0000  0.0000  0.0000  0.0043  0.0000 -1.0000      0.0000  0.0000  0.0000  0.0000  0.0000  0.0000  0.0000  0.0000  0.0000  0.0000
  o =  0.1901  v =  0.0000  0.0000  0.0000  0.0000  0.0000  0.0000  0.0000  1.0000  0.0000  0.0043      0.0000  0.0000  0.0000  0.0000  0.0000  0.0000  0.0000  0.0000  0.0000  0.0000
  o =  0.7493  v =  0.0000  0.0000 -0.9993  0.0000 -0.0383  0.0000  0.0000  0.0000  0.0000  0.0000      0.0000  0.0000  0.0000  0.0000  0.0000  0.0000  0.0000  0.0000  0.0000  0.0000
  o =  0.7493  v =  0.0000  0.0000 -0.0383  0.0000  0.9993  0.0000  0.0000  0.0000  0.0000  0.0000      0.0000  0.0000  0.0000  0.0000  0.0000  0.0000  0.0000  0.0000  0.0000  0.0000
  o =  0.9549  v =  0.0000 -0.9881  0.0000 -0.1537  0.0000  0.0000  0.0000  0.0000  0.0000  0.0000      0.0000  0.0000  0.0000  0.0000  0.0000  0.0000  0.0000  0.0000  0.0000  0.0000
  o =  0.9549  v =  0.0000  0.1537  0.0000 -0.9881  0.0000  0.0000  0.0000  0.0000  0.0000  0.0000      0.0000  0.0000  0.0000  0.0000  0.0000  0.0000  0.0000  0.0000  0.0000  0.0000
  o =  0.9549  v =  1.0000  0.0000  0.0000  0.0000  0.0000  0.0000  0.0000  0.0000  0.0000  0.0000      0.0000  0.0000  0.0000  0.0000  0.0000  0.0000  0.0000  0.0000  0.0000  0.0000
    SETDIJ:  cpu time    0.07: real time    0.07
    EDDIAG:  cpu time   14.91: real time   14.94
  RMM-DIIS:  cpu time   59.32: real time   59.43
    ORTHCH:  cpu time    0.27: real time    0.27
       DOS:  cpu time    0.03: real time    0.03
    CHARGE:  cpu time    7.52: real time    7.54
    MIXING:  cpu time    0.01: real time    0.01
    --------------------------------------------
      LOOP:  cpu time   82.61: real time   82.77

 eigenvalue-minimisations  : 12602
 total energy-change (2. order) :-0.6487302E-01  (-0.8685950E-01)
 number of electron      36.0000032 magnetization       3.9976092
 augmentation part        3.3998211 magnetization       2.7730916

 Broyden mixing:
  rms(total) = 0.85824E-01    rms(broyden)= 0.85726E-01
  rms(prec ) = 0.13461E+00
  weight for this iteration     100.00

 eigenvalues of (default mixing * dielectric matrix)
  average eigenvalue GAMMA=   1.1551
  2.2294  0.8281  0.7813  0.7813

 Free energy of the ion-electron system (eV)
  ---------------------------------------------------
  alpha Z        PSCENC =       158.85908541
  Ewald energy   TEWEN  =     -2362.90209232
  -1/2 Hartree   DENC   =      -459.86688148
  -exchange  EXHF       =         0.00000000
  -V(xc)+E(xc)   XCENC  =       107.98981923
  PAW double counting   =      1685.06797091    -1671.62650913
  entropy T*S    EENTRO =         0.00227330
  eigenvalues    EBANDS =       -76.20439234
  atomic energy  EATOM  =      2578.87124594
  ---------------------------------------------------
  free energy    TOTEN  =       -39.80948047 eV

  energy without entropy =      -39.81175378  energy(sigma->0) =      -39.81023824


--------------------------------------------------------------------------------------------------------




----------------------------------------- Iteration    1(  10)  ---------------------------------------


    POTLOK:  cpu time    0.47: real time    0.47
atom =   2  type =  2  l = 2
 
 onsite density matrix
 
spin component  1
 
  0.9515  0.0000  0.0000  0.0000  0.0000
  0.0000  0.9515  0.0000  0.0000  0.0000
  0.0000  0.0000  0.7576  0.0000  0.0000
  0.0000  0.0000  0.0000  0.9515  0.0000
  0.0000  0.0000  0.0000  0.0000  0.7576
 
spin component  2
 
  0.0509  0.0000  0.0000  0.0000  0.0000
  0.0000  0.0509  0.0000  0.0000  0.0000
  0.0000  0.0000  0.1859  0.0000  0.0000
  0.0000  0.0000  0.0000  0.0509  0.0000
  0.0000  0.0000  0.0000  0.0000  0.1859
 
 occupancies and eigenvectors
 
  o =  0.0509  v =  0.0000  0.0000  0.0000  0.0000  0.0000  0.0000 -0.9334  0.0000 -0.3589  0.0000      0.0000  0.0000  0.0000  0.0000  0.0000  0.0000  0.0000  0.0000  0.0000  0.0000
  o =  0.0509  v =  0.0000  0.0000  0.0000  0.0000  0.0000  0.0000 -0.3589  0.0000  0.9334  0.0000      0.0000  0.0000  0.0000  0.0000  0.0000  0.0000  0.0000  0.0000  0.0000  0.0000
  o =  0.0509  v =  0.0000  0.0000  0.0000  0.0000  0.0000  1.0000  0.0000  0.0000  0.0000  0.0000      0.0000  0.0000  0.0000  0.0000  0.0000  0.0000  0.0000  0.0000  0.0000  0.0000
  o =  0.1859  v =  0.0000  0.0000  0.0000  0.0000  0.0000  0.0000  0.0000  0.9997  0.0000  0.0250      0.0000  0.0000  0.0000  0.0000  0.0000  0.0000  0.0000  0.0000  0.0000  0.0000
  o =  0.1859  v =  0.0000  0.0000  0.0000  0.0000  0.0000  0.0000  0.0000 -0.0250  0.0000  0.9997      0.0000  0.0000  0.0000  0.0000  0.0000  0.0000  0.0000  0.0000  0.0000  0.0000
  o =  0.7576  v =  0.0000  0.0000  0.9967  0.0000 -0.0812  0.0000  0.0000  0.0000  0.0000  0.0000      0.0000  0.0000  0.0000  0.0000  0.0000  0.0000  0.0000  0.0000  0.0000  0.0000
  o =  0.7576  v =  0.0000  0.0000 -0.0812  0.0000 -0.9967  0.0000  0.0000  0.0000  0.0000  0.0000      0.0000  0.0000  0.0000  0.0000  0.0000  0.0000  0.0000  0.0000  0.0000  0.0000
  o =  0.9515  v =  0.0000  0.9038  0.0000  0.4279  0.0000  0.0000  0.0000  0.0000  0.0000  0.0000      0.0000  0.0000  0.0000  0.0000  0.0000  0.0000  0.0000  0.0000  0.0000  0.0000
  o =  0.9515  v =  1.0000  0.0000  0.0000  0.0000  0.0000  0.0000  0.0000  0.0000  0.0000  0.0000      0.0000  0.0000  0.0000  0.0000  0.0000  0.0000  0.0000  0.0000  0.0000  0.0000
[...]
  0.000   0.000   0.000   0.000   0.000   0.000   0.000   0.000
  0.000   0.000   0.000   0.000   0.000   0.000   0.000   0.000
  0.000   0.000   0.000   0.000   0.000   0.000   0.000   0.000
  0.000   0.000   0.000   0.000   0.000   0.000   0.000   0.000
  0.000   0.000   0.000   0.000   0.000   0.000   0.000   0.000
  0.000   0.000   0.000   0.000   0.000   0.000   0.000   0.000
  0.000   0.000   0.000   0.000   0.000   0.000   0.000   0.000
  0.000   0.000   0.000   0.000   0.000   0.000   0.000   0.000
  0.000   0.000   0.002   0.000   0.000   0.000   0.000   0.000
  0.000   0.000   0.000   0.000   0.000   0.000   0.000   0.000
  0.000   0.000   0.001   0.000   0.000   0.000   0.000   0.000
  0.000   0.000   0.000  -0.002   0.000   0.000   0.000   0.000
  0.000   0.000   0.000   0.000   0.001   0.000   0.000   0.000
  0.000   0.000   0.000   0.000   0.000   0.000   0.000   0.000
  0.000   0.000   0.000   0.000  -0.002   0.000   0.000   0.000
  0.000   0.000  -0.001   0.000   0.000   0.000   0.000   0.000
  0.000   0.000   0.000   0.000   0.000   0.000   0.000   0.000
  0.000   0.000  -0.001   0.000   0.000   0.000   0.000   0.000
  0.000   0.000   0.000   0.002   0.000   0.000   0.001   0.000
  0.000   0.000   0.000   0.000  -0.001   0.000   0.000   0.000
  0.000   0.000   0.000   0.000   0.000   0.000   0.000   0.000
  0.000   0.000   0.000   0.000   0.001   0.000   0.000   0.000
 pseudopotential strength for first ion, spin component:           2
 52.673  -4.031   0.000   0.000   0.000   0.000   0.000   0.000
 -4.031  -4.568   0.000   0.000   0.000   0.000   0.000   0.000
  0.000   0.000  18.827   0.000   0.000   0.889   0.000   0.000
  0.000   0.000   0.000  18.827   0.000   0.000   0.889   0.000
  0.000   0.000   0.000   0.000  18.827   0.000   0.000   0.889
  0.000   0.000   0.889   0.000   0.000   6.928   0.000   0.000
  0.000   0.000   0.000   0.889   0.000   0.000   6.928   0.000
  0.000   0.000   0.000   0.000   0.889   0.000   0.000   6.928
  0.000   0.000   0.000   0.000   0.000   0.000   0.000   0.000
  0.000   0.000   0.000   0.000   0.000   0.000   0.000   0.000
  0.000   0.000   0.000   0.000   0.000   0.000   0.000   0.000
  0.000   0.000   0.000   0.000   0.000   0.000   0.000   0.000
  0.000   0.000   0.000   0.000   0.000   0.000   0.000   0.000
  0.000   0.000   0.000   0.000   0.000   0.000   0.000   0.000
  0.000   0.000   0.000   0.000   0.000   0.000   0.000   0.000
  0.000   0.000   0.000   0.000   0.000   0.000   0.000   0.000
  0.000   0.000   0.000   0.000   0.000   0.000   0.000   0.000
  0.000   0.000   0.000   0.000   0.000   0.000   0.000   0.000
  0.000   0.000   0.003   0.000   0.000   0.000   0.000   0.000
  0.000   0.000   0.000   0.000   0.000   0.000   0.000   0.000
  0.000   0.000   0.002   0.000   0.000   0.000   0.000   0.000
  0.000   0.000   0.000  -0.004   0.000   0.000   0.000   0.000
  0.000   0.000   0.000   0.000   0.002   0.000   0.000   0.000
  0.000   0.000   0.000   0.000   0.000   0.000   0.000   0.000
  0.000   0.000   0.000   0.000  -0.003   0.000   0.000   0.000
  0.000   0.000  -0.002   0.000   0.000   0.000   0.000   0.000
  0.000   0.000   0.000   0.000   0.000   0.000   0.000   0.000
  0.000   0.000  -0.002   0.000   0.000   0.000   0.000   0.000
  0.000   0.000   0.000   0.003   0.000   0.000   0.001   0.000
  0.000   0.000   0.000   0.000  -0.002   0.000   0.000   0.000
  0.000   0.000   0.000   0.000   0.000   0.000   0.000   0.000
  0.000   0.000   0.000   0.000   0.002   0.000   0.000   0.000
 total augmentation occupancy for first ion, spin component:           1
  2.216  -0.404   0.000   0.000   0.000   0.000   0.000   0.000   0.000   0.000   0.000   0.000   0.000   0.000   0.000   0.000
 -0.404   0.720   0.000   0.000   0.000   0.000   0.000   0.000   0.000   0.000   0.000   0.000   0.000   0.000   0.000   0.000
  0.000   0.000   2.048   0.000   0.000  -0.021   0.000   0.000   0.000   0.000   0.000   0.000   0.000   0.000   0.000   0.000
  0.000   0.000   0.000   2.048   0.000   0.000  -0.021   0.000   0.000   0.000   0.000   0.000   0.000   0.000   0.000   0.000
  0.000   0.000   0.000   0.000   2.048   0.000   0.000  -0.021   0.000   0.000   0.000   0.000   0.000   0.000   0.000   0.000
  0.000   0.000  -0.021   0.000   0.000   0.016   0.000   0.000   0.000   0.000   0.000   0.000   0.000   0.000   0.000   0.000
  0.000   0.000   0.000  -0.021   0.000   0.000   0.016   0.000   0.000   0.000   0.000   0.000   0.000   0.000   0.000   0.000
  0.000   0.000   0.000   0.000  -0.021   0.000   0.000   0.016   0.000   0.000   0.000   0.000   0.000   0.000   0.000   0.000
  0.000   0.000   0.000   0.000   0.000   0.000   0.000   0.000   0.144   0.000   0.000   0.000   0.000  -0.166   0.000   0.000
  0.000   0.000   0.000   0.000   0.000   0.000   0.000   0.000   0.000   0.144   0.000   0.000   0.000   0.000  -0.166   0.000
  0.000   0.000   0.000   0.000   0.000   0.000   0.000   0.000   0.000   0.000   0.118   0.000   0.000   0.000   0.000  -0.127
  0.000   0.000   0.000   0.000   0.000   0.000   0.000   0.000   0.000   0.000   0.000   0.144   0.000   0.000   0.000   0.000
  0.000   0.000   0.000   0.000   0.000   0.000   0.000   0.000   0.000   0.000   0.000   0.000   0.118   0.000   0.000   0.000
  0.000   0.000   0.000   0.000   0.000   0.000   0.000   0.000  -0.166   0.000   0.000   0.000   0.000   0.210   0.000   0.000
  0.000   0.000   0.000   0.000   0.000   0.000   0.000   0.000   0.000  -0.166   0.000   0.000   0.000   0.000   0.210   0.000
  0.000   0.000   0.000   0.000   0.000   0.000   0.000   0.000   0.000   0.000  -0.127   0.000   0.000   0.000   0.000   0.148
  0.000   0.000   0.000   0.000   0.000   0.000   0.000   0.000   0.000   0.000   0.000  -0.166   0.000   0.000   0.000   0.000
  0.000   0.000   0.000   0.000   0.000   0.000   0.000   0.000   0.000   0.000   0.000   0.000  -0.127   0.000   0.000   0.000
  0.000   0.000  -0.015   0.000   0.000   0.005   0.000   0.000   0.000   0.000   0.000   0.000   0.000   0.000   0.000   0.000
  0.000   0.000   0.000   0.000   0.000   0.000   0.000   0.000   0.000   0.000   0.000   0.000   0.000   0.000   0.000   0.000
  0.000   0.000  -0.012   0.000   0.000   0.004   0.000   0.000   0.000   0.000   0.000   0.000   0.000   0.000   0.000   0.000
  0.000   0.000   0.000   0.019   0.000   0.000  -0.007   0.000   0.000   0.000   0.000   0.000   0.000   0.000   0.000   0.000
  0.000   0.000   0.000   0.000  -0.012   0.000   0.000   0.004   0.000   0.000   0.000   0.000   0.000   0.000   0.000   0.000
  0.000   0.000   0.000   0.000   0.000   0.000   0.000   0.000   0.000   0.000   0.000   0.000   0.000   0.000   0.000   0.000
  0.000   0.000   0.000   0.000   0.015   0.000   0.000  -0.005   0.000   0.000   0.000   0.000   0.000   0.000   0.000   0.000
  0.000   0.000  -0.011   0.000   0.000   0.004   0.000   0.000   0.000   0.000   0.000   0.000   0.000   0.000   0.000   0.000
  0.000   0.000   0.000   0.000   0.000   0.000   0.000   0.000   0.000   0.000   0.000   0.000   0.000   0.000   0.000   0.000
  0.000   0.000  -0.009   0.000   0.000   0.003   0.000   0.000   0.000   0.000   0.000   0.000   0.000   0.000   0.000   0.000
  0.000   0.000   0.000   0.014   0.000   0.000  -0.005   0.000   0.000   0.000   0.000   0.000   0.000   0.000   0.000   0.000
  0.000   0.000   0.000   0.000  -0.009   0.000   0.000   0.003   0.000   0.000   0.000   0.000   0.000   0.000   0.000   0.000
  0.000   0.000   0.000   0.000   0.000   0.000   0.000   0.000   0.000   0.000   0.000   0.000   0.000   0.000   0.000   0.000
  0.000   0.000   0.000   0.000   0.011   0.000   0.000  -0.004   0.000   0.000   0.000   0.000   0.000   0.000   0.000   0.000
 total augmentation occupancy for first ion, spin component:           2
  0.002  -0.004   0.000   0.000   0.000   0.000   0.000   0.000   0.000   0.000   0.000   0.000   0.000   0.000   0.000   0.000
 -0.004   0.008   0.000   0.000   0.000   0.000   0.000   0.000   0.000   0.000   0.000   0.000   0.000   0.000   0.000   0.000
  0.000   0.000   0.000   0.000   0.000   0.000   0.000   0.000   0.000   0.000   0.000   0.000   0.000   0.000   0.000   0.000
  0.000   0.000   0.000   0.000   0.000   0.000   0.000   0.000   0.000   0.000   0.000   0.000   0.000   0.000   0.000   0.000
  0.000   0.000   0.000   0.000   0.000   0.000   0.000   0.000   0.000   0.000   0.000   0.000   0.000   0.000   0.000   0.000
  0.000   0.000   0.000   0.000   0.000   0.000   0.000   0.000   0.000   0.000   0.000   0.000   0.000   0.000   0.000   0.000
  0.000   0.000   0.000   0.000   0.000   0.000   0.000   0.000   0.000   0.000   0.000   0.000   0.000   0.000   0.000   0.000
  0.000   0.000   0.000   0.000   0.000   0.000   0.000   0.000   0.000   0.000   0.000   0.000   0.000   0.000   0.000   0.000
  0.000   0.000   0.000   0.000   0.000   0.000   0.000   0.000   0.001   0.000   0.000   0.000   0.000   0.001   0.000   0.000
  0.000   0.000   0.000   0.000   0.000   0.000   0.000   0.000   0.000   0.001   0.000   0.000   0.000   0.000   0.001   0.000
  0.000   0.000   0.000   0.000   0.000   0.000   0.000   0.000   0.000   0.000   0.010   0.000   0.000   0.000   0.000  -0.006
  0.000   0.000   0.000   0.000   0.000   0.000   0.000   0.000   0.000   0.000   0.000   0.001   0.000   0.000   0.000   0.000
  0.000   0.000   0.000   0.000   0.000   0.000   0.000   0.000   0.000   0.000   0.000   0.000   0.010   0.000   0.000   0.000
  0.000   0.000   0.000   0.000   0.000   0.000   0.000   0.000   0.001   0.000   0.000   0.000   0.000  -0.001   0.000   0.000
  0.000   0.000   0.000   0.000   0.000   0.000   0.000   0.000   0.000   0.001   0.000   0.000   0.000   0.000  -0.001   0.000
  0.000   0.000   0.000   0.000   0.000   0.000   0.000   0.000   0.000   0.000  -0.006   0.000   0.000   0.000   0.000   0.003
  0.000   0.000   0.000   0.000   0.000   0.000   0.000   0.000   0.000   0.000   0.000   0.001   0.000   0.000   0.000   0.000
  0.000   0.000   0.000   0.000   0.000   0.000   0.000   0.000   0.000   0.000   0.000   0.000  -0.006   0.000   0.000   0.000
  0.000   0.000   0.001   0.000   0.000  -0.001   0.000   0.000   0.000   0.000   0.000   0.000   0.000   0.000   0.000   0.000
  0.000   0.000   0.000   0.000   0.000   0.000   0.000   0.000   0.000   0.000   0.000   0.000   0.000   0.000   0.000   0.000
  0.000   0.000   0.001   0.000   0.000  -0.001   0.000   0.000   0.000   0.000   0.000   0.000   0.000   0.000   0.000   0.000
  0.000   0.000   0.000  -0.002   0.000   0.000   0.001   0.000   0.000   0.000   0.000   0.000   0.000   0.000   0.000   0.000
  0.000   0.000   0.000   0.000   0.001   0.000   0.000  -0.001   0.000   0.000   0.000   0.000   0.000   0.000   0.000   0.000
  0.000   0.000   0.000   0.000   0.000   0.000   0.000   0.000   0.000   0.000   0.000   0.000   0.000   0.000   0.000   0.000
  0.000   0.000   0.000   0.000  -0.001   0.000   0.000   0.001   0.000   0.000   0.000   0.000   0.000   0.000   0.000   0.000
  0.000   0.000   0.000   0.000   0.000   0.000   0.000   0.000   0.000   0.000   0.000   0.000   0.000   0.000   0.000   0.000
  0.000   0.000   0.000   0.000   0.000   0.000   0.000   0.000   0.000   0.000   0.000   0.000   0.000   0.000   0.000   0.000
  0.000   0.000   0.000   0.000   0.000   0.000   0.000   0.000   0.000   0.000   0.000   0.000   0.000   0.000   0.000   0.000
  0.000   0.000   0.000   0.000   0.000   0.000   0.001   0.000   0.000   0.000   0.000   0.000   0.000   0.000   0.000   0.000
  0.000   0.000   0.000   0.000   0.000   0.000   0.000   0.000   0.000   0.000   0.000   0.000   0.000   0.000   0.000   0.000
  0.000   0.000   0.000   0.000   0.000   0.000   0.000   0.000   0.000   0.000   0.000   0.000   0.000   0.000   0.000   0.000
  0.000   0.000   0.000   0.000   0.000   0.000   0.000   0.000   0.000   0.000   0.000   0.000   0.000   0.000   0.000   0.000


------------------------ aborting loop because EDIFF is reached ----------------------------------------


 


 total charge     
 
# of ion     s       p       d       f       tot
------------------------------------------------
  1        1.999   5.694   0.481   0.191   8.365
  2        0.317   0.479   4.926   0.000   5.721
  3        1.582   3.613   0.000   0.000   5.195
  4        1.585   3.426   0.000   0.000   5.011
  5        1.594   3.388   0.000   0.000   4.982
------------------------------------------------
tot        7.077  16.600   5.407   0.191  29.274

 


 magnetization (x)
 
# of ion     s       p       d       f       tot
------------------------------------------------
  1        0.001   0.001   0.014   0.010   0.024
  2        0.026   0.029   3.855   0.000   3.910
  3        0.017  -0.019   0.000   0.000  -0.001
  4        0.003  -0.035   0.000   0.000  -0.032
  5        0.000  -0.020   0.000   0.000  -0.020
------------------------------------------------
tot        0.047  -0.045   3.868   0.010   3.881

 
    CHARGE:  cpu time    7.55: real time    7.56
    FORLOC:  cpu time    0.02: real time    0.02
    FORNL :  cpu time    6.51: real time    6.53
    STRESS:  cpu time    7.02: real time    7.04
    FORCOR:  cpu time    0.47: real time    0.47
    FORHAR:  cpu time    0.07: real time    0.07
    MIXING:  cpu time    0.01: real time    0.01
    FORVDW:  cpu time    0.00: real time    0.00

  FORCE on cell =-STRESS in cart. coord.  units (eV):
  Direction    XX          YY          ZZ          XY          YZ          ZX
  --------------------------------------------------------------------------------------
  Alpha Z   162.64124   162.64124   162.64124
  Ewald    -793.83638  -793.83638  -793.83638     0.00000     0.00000     0.00000
  Hartree   151.13915   151.13915   151.13915     0.00000     0.00000     0.00000
  E(xc)    -164.45421  -164.45421  -164.45421     0.00000     0.00000     0.00000
  Local     -63.41316   -63.41316   -63.41316     0.00000     0.00000     0.00000
  n-local    63.82816    62.38861    62.12825    -0.50553    -0.10136    -0.20362
  augment     8.18832     8.18832     8.18832     0.00000     0.00000     0.00000
  Kinetic   620.61762   639.02506   651.22747    -2.35704    -3.32064    -1.81153
  Fock        0.00000     0.00000     0.00000     0.00000     0.00000     0.00000
  -------------------------------------------------------------------------------------
  Total       0.00334     0.00334     0.00334     0.00000     0.00000     0.00000
  in kB       0.08970     0.08970     0.08970     0.00000     0.00000     0.00000
  external pressure =        0.09 kB  Pullay stress =        0.00 kB


 VOLUME and BASIS-vectors are now :
 -----------------------------------------------------------------------------
  energy-cutoff  :      400.00
  volume of cell :       59.73
      direct lattice vectors                 reciprocal lattice vectors
     3.908896698  0.000000000  0.000000000     0.255826663  0.000000000  0.000000000
     0.000000000  3.908896698  0.000000000     0.000000000  0.255826663  0.000000000
     0.000000000  0.000000000  3.908896698     0.000000000  0.000000000  0.255826663

  length of vectors
     3.908896698  3.908896698  3.908896698     0.255826663  0.255826663  0.255826663


 FORCES acting on ions
    electron-ion (+dipol)            ewald-force                    non-local-force                 convergence-correction
 -----------------------------------------------------------------------------------------------
   -.160E-03 -.160E-03 -.160E-03   0.871E-03 0.871E-03 0.871E-03   -.856E-23 -.129E-22 0.000E+00   -.205E-06 -.205E-06 -.205E-06
   0.308E-03 0.308E-03 0.308E-03   -.106E-02 -.106E-02 -.106E-02   0.122E-23 -.105E-23 0.000E+00   0.403E-06 0.403E-06 0.403E-06
   -.302E-02 -.302E-02 -.438E-03   -.523E-03 -.523E-03 0.124E-02   0.130E-22 0.363E-23 0.000E+00   0.615E-06 0.615E-06 -.397E-06
   -.302E-02 -.438E-03 -.302E-02   -.523E-03 0.124E-02 -.523E-03   -.131E-22 -.890E-23 0.000E+00   0.615E-06 -.397E-06 0.615E-06
   -.438E-03 -.302E-02 -.302E-02   0.124E-02 -.523E-03 -.523E-03   0.173E-23 -.103E-22 0.000E+00   -.397E-06 0.615E-06 0.615E-06
 -----------------------------------------------------------------------------------------------
   -.633E-02 -.633E-02 -.633E-02   0.551E-16 -.612E-15 -.230E-15   -.569E-23 -.295E-22 0.000E+00   0.103E-05 0.103E-05 0.103E-05
 
 
 POSITION                                       TOTAL-FORCE (eV/Angst)
 -----------------------------------------------------------------------------------
      0.00000      0.00000      0.00000         0.000000      0.000000      0.000000
      1.95445      1.95445      1.95445         0.000000      0.000000      0.000000
      1.95445      1.95445      0.00000         0.000000      0.000000      0.000000
      1.95445      0.00000      1.95445         0.000000      0.000000      0.000000
      0.00000      1.95445      1.95445         0.000000      0.000000      0.000000
 -----------------------------------------------------------------------------------
    total drift:                               -0.006333     -0.006333     -0.006333


--------------------------------------------------------------------------------------------------------



  FREE ENERGIE OF THE ION-ELECTRON SYSTEM (eV)
  ---------------------------------------------------
  free  energy   TOTEN  =       -39.85550532 eV

  energy  without entropy=      -39.85783088  energy(sigma->0) =      -39.85628050
 
 d Force = 0.0000000E+00[ 0.000E+00, 0.000E+00]  d Energy = 0.3677342E-01-0.368E-01
 d Force = 0.0000000E+00[ 0.000E+00, 0.000E+00]  d Ewald  =-0.2418674E+02 0.242E+02


--------------------------------------------------------------------------------------------------------


    POTLOK:  cpu time    0.56: real time    0.56


--------------------------------------------------------------------------------------------------------




--------------------------------------------------------------------------------------------------------


  
 reached required accuracy - stopping structural energy minimisation
     LOOP+:  cpu time  515.49: real time  516.46
    4ORBIT:  cpu time    0.00: real time    0.00
 


 total charge     
 
# of ion     s       p       d       f       tot
------------------------------------------------
  1        1.999   5.694   0.481   0.191   8.365
  2        0.317   0.479   4.926   0.000   5.721
  3        1.582   3.613   0.000   0.000   5.195
  4        1.585   3.426   0.000   0.000   5.011
  5        1.594   3.388   0.000   0.000   4.982
------------------------------------------------
tot        7.077  16.600   5.407   0.191  29.274

 


 magnetization (x)
 
# of ion     s       p       d       f       tot
------------------------------------------------
  1        0.001   0.001   0.014   0.010   0.024
  2        0.026   0.029   3.855   0.000   3.910
  3        0.017  -0.019   0.000   0.000  -0.001
  4        0.003  -0.035   0.000   0.000  -0.032
  5        0.000  -0.020   0.000   0.000  -0.020
------------------------------------------------
tot        0.047  -0.045   3.868   0.010   3.881

 

 total amount of memory used by VASP on root node   210056. kBytes
========================================================================

   base      :      30000. kBytes
   nonl-proj :      73699. kBytes
   grid      :      17687. kBytes
   one-center:        491. kBytes
   wavefun   :      88179. kBytes
 
  
  
 General timing and accounting informations for this job:
 ========================================================
  
                  Total CPU time used (sec):     2487.835
                            User time (sec):     2487.454
                          System time (sec):        0.381
                         Elapsed time (sec):     2492.703
  
                   Maximum memory used (kb):      372616.
                   Average memory used (kb):           0.
  
                          Minor page faults:       101184
                          Major page faults:            0
                 Voluntary context switches:          217
