 vasp.5.3.2 13Sep12 (build Apr 01 2013 09:32:17) complex                        
  
 POSCAR found type information on POSCAR  La Mn O 
 POSCAR found :  3 types and       5 ions
 LDA part: xc-table for Pade appr. of Perdew
 POSCAR, INCAR and KPOINTS ok, starting setup
 FFT: planning ...
 WAVECAR not read
 entering main loop
       N       E                     dE             d eps       ncg     rms          rms(c)
 LDA+U double counting
  E(e-e)-E(LSDA) =   2.07326677799132     
  E(DC)          =   5.81646703955694     
  DBLE_LDAU      =   7.88973381754826     
DAV:   1     0.342704104018E+03    0.34270E+03   -0.13002E+04  9912   0.169E+03
DAV:   2     0.416433441930E+02   -0.30106E+03   -0.26792E+03  9548   0.337E+02
DAV:   3    -0.366641409391E+02   -0.78307E+02   -0.67558E+02 13364   0.168E+02
DAV:   4    -0.435779760880E+02   -0.69138E+01   -0.65609E+01 15850   0.502E+01
DAV:   5    -0.438866439501E+02   -0.30867E+00   -0.30492E+00 13990   0.991E+00    0.218E+01
 LDA+U double counting
  E(e-e)-E(LSDA) =   2.40409998214084     
  E(DC)          =   4.17408841730410     
  DBLE_LDAU      =   6.57818839944494     
RMM:   6    -0.402832640153E+02    0.36034E+01   -0.75872E+01 12017   0.648E+01    0.999E+00
 LDA+U double counting
  E(e-e)-E(LSDA) =   2.17539883055001     
  E(DC)          =   4.87428023549150     
  DBLE_LDAU      =   7.04967906604151     
RMM:   7    -0.395440838998E+02    0.73918E+00   -0.77273E+00 10649   0.314E+01    0.344E+00
 LDA+U double counting
  E(e-e)-E(LSDA) =   2.06807637410665     
  E(DC)          =   5.13261766170063     
  DBLE_LDAU      =   7.20069403580728     
RMM:   8    -0.397446074578E+02   -0.20052E+00   -0.23100E+00 12070   0.107E+01    0.197E+00
 LDA+U double counting
  E(e-e)-E(LSDA) =   1.79011921248079     
  E(DC)          =   5.68943171386875     
  DBLE_LDAU      =   7.47955092634954     
RMM:   9    -0.398094804742E+02   -0.64873E-01   -0.86860E-01 12602   0.517E+00    0.858E-01
 LDA+U double counting
  E(e-e)-E(LSDA) =   1.81147648918664     
  E(DC)          =   5.67583054953233     
  DBLE_LDAU      =   7.48730703871898     
RMM:  10    -0.398274901587E+02   -0.18010E-01   -0.22753E-01 12722   0.294E+00    0.383E-01
 LDA+U double counting
  E(e-e)-E(LSDA) =   1.79652416780000     
  E(DC)          =   5.70881210011090     
  DBLE_LDAU      =   7.50533626791090     
RMM:  11    -0.398304078586E+02   -0.29177E-02   -0.47412E-02 12482   0.125E+00    0.228E-01
 LDA+U double counting
  E(e-e)-E(LSDA) =   1.78099478383981     
  E(DC)          =   5.74398981859079     
  DBLE_LDAU      =   7.52498460243060     
RMM:  12    -0.398320786467E+02   -0.16708E-02   -0.27392E-02 12131   0.845E-01    0.113E-01
 LDA+U double counting
  E(e-e)-E(LSDA) =   1.79041057561969     
  E(DC)          =   5.73051076685498     
  DBLE_LDAU      =   7.52092134247467     
RMM:  13    -0.398327491519E+02   -0.67051E-03   -0.75573E-03 10915   0.482E-01    0.145E-01
 LDA+U double counting
  E(e-e)-E(LSDA) =   1.78216144603221     
  E(DC)          =   5.75078692634227     
  DBLE_LDAU      =   7.53294837237448     
RMM:  14    -0.398325936449E+02    0.15551E-03   -0.42452E-03 10299   0.337E-01    0.546E-02
 LDA+U double counting
  E(e-e)-E(LSDA) =   1.78537495349322     
  E(DC)          =   5.74618348265740     
  DBLE_LDAU      =   7.53155843615062     
RMM:  15    -0.398328127985E+02   -0.21915E-03   -0.26936E-03 10092   0.290E-01    0.319E-02
 LDA+U double counting
  E(e-e)-E(LSDA) =   1.78295655231093     
  E(DC)          =   5.75072872323847     
  DBLE_LDAU      =   7.53368527554940     
RMM:  16    -0.398329331480E+02   -0.12035E-03   -0.14736E-03  7081   0.185E-01    0.145E-02
 LDA+U double counting
  E(e-e)-E(LSDA) =   1.78343832125556     
  E(DC)          =   5.74978280892230     
  DBLE_LDAU      =   7.53322113017785     
RMM:  17    -0.398330209242E+02   -0.87776E-04   -0.91386E-04  6953   0.126E-01
 LDA+U double counting
  E(e-e)-E(LSDA) =   1.78276017255761     
  E(DC)          =   5.75071306080655     
  DBLE_LDAU      =   7.53347323336416     
 LDA+U double counting
  E(e-e)-E(LSDA) =   1.78226413501720     
  E(DC)          =   5.75223105601471     
  DBLE_LDAU      =   7.53449519103191     
   1 F= -.39833021E+02 E0= -.39833750E+02  d E =-.398330E+02  mag=     4.0000
 curvature:   0.00 expect dE= 0.000E+00 dE for cont linesearch  0.000E+00
 trial: gam= 0.00000 g(F)=  0.000E+00 g(S)=  0.984E-01 ort = 0.000E+00 (trialstep = 0.100E+01)
 search vector abs. value=  0.984E-01
 bond charge predicted
       N       E                     dE             d eps       ncg     rms          rms(c)
 LDA+U double counting
  E(e-e)-E(LSDA) =   1.78226413501720     
  E(DC)          =   5.75223105601471     
  DBLE_LDAU      =   7.53449519103191     
DAV:   1    -0.403449313827E+02   -0.51200E+00   -0.16940E+01 11281   0.376E+01    0.513E+00
 LDA+U double counting
  E(e-e)-E(LSDA) =   1.86485881534519     
  E(DC)          =   5.63061147938170     
  DBLE_LDAU      =   7.49547029472689     
RMM:   2    -0.398662021247E+02    0.47873E+00   -0.16284E+00 12045   0.993E+00    0.194E+00
 LDA+U double counting
  E(e-e)-E(LSDA) =   1.81585775644000     
  E(DC)          =   5.74021648741773     
  DBLE_LDAU      =   7.55607424385773     
RMM:   3    -0.398162489414E+02    0.49953E-01   -0.48151E-01 10779   0.700E+00    0.633E-01
 LDA+U double counting
  E(e-e)-E(LSDA) =   1.84829014144282     
  E(DC)          =   5.69351591564181     
  DBLE_LDAU      =   7.54180605708463     
RMM:   4    -0.398204509337E+02   -0.42020E-02   -0.99845E-02 11472   0.312E+00    0.357E-01
 LDA+U double counting
  E(e-e)-E(LSDA) =   1.83135198256797     
  E(DC)          =   5.73531434705513     
  DBLE_LDAU      =   7.56666632962310     
RMM:   5    -0.398181772107E+02    0.22737E-02   -0.25807E-02 11604   0.148E+00    0.171E-01
 LDA+U double counting
  E(e-e)-E(LSDA) =   1.83881883872443     
  E(DC)          =   5.72448410552567     
  DBLE_LDAU      =   7.56330294425010     
RMM:   6    -0.398186595483E+02   -0.48234E-03   -0.42629E-03 10930   0.545E-01    0.883E-02
 LDA+U double counting
  E(e-e)-E(LSDA) =   1.83587390585039     
  E(DC)          =   5.73420009798528     
  DBLE_LDAU      =   7.57007400383567     
RMM:   7    -0.398186677175E+02   -0.81692E-05   -0.11703E-03  9102   0.270E-01    0.482E-02
 LDA+U double counting
  E(e-e)-E(LSDA) =   1.83494551831861     
  E(DC)          =   5.74769606552056     
  DBLE_LDAU      =   7.58264158383917     
RMM:   8    -0.398188557659E+02   -0.18805E-03   -0.86853E-04  9079   0.268E-01    0.671E-02
 LDA+U double counting
  E(e-e)-E(LSDA) =   1.83652858201834     
  E(DC)          =   5.74230109518521     
  DBLE_LDAU      =   7.57882967720355     
RMM:   9    -0.398186995144E+02    0.15625E-03   -0.33230E-04  7051   0.206E-01    0.117E-02
 LDA+U double counting
  E(e-e)-E(LSDA) =   1.83617463677321     
  E(DC)          =   5.74326652566166     
  DBLE_LDAU      =   7.57944116243487     
RMM:  10    -0.398187318951E+02   -0.32381E-04   -0.29260E-04  6864   0.152E-01
 LDA+U double counting
  E(e-e)-E(LSDA) =   1.83624319659135     
  E(DC)          =   5.74525912254926     
  DBLE_LDAU      =   7.58150231914061     
 LDA+U double counting
  E(e-e)-E(LSDA) =   1.83697416596706     
  E(DC)          =   5.74242582227991     
  DBLE_LDAU      =   7.57939998824697     
   2 F= -.39818732E+02 E0= -.39819558E+02  d E =0.142890E-01  mag=     4.0000
 trial-energy change:    0.014289  1 .order    0.015271   -0.098380    0.128921
 step:   0.4392(harm=  0.4328)  dis= 0.00000  next Energy=   -39.854708 (dE=-0.217E-01)
 bond charge predicted
       N       E                     dE             d eps       ncg     rms          rms(c)
 LDA+U double counting
  E(e-e)-E(LSDA) =   1.83697416596706     
  E(DC)          =   5.74242582227991     
  DBLE_LDAU      =   7.57939998824697     
DAV:   1    -0.400172188498E+02   -0.19852E+00   -0.52900E+00 11581   0.209E+01    0.281E+00
 LDA+U double counting
  E(e-e)-E(LSDA) =   1.79108566480379     
  E(DC)          =   5.80981175324806     
  DBLE_LDAU      =   7.60089741805184     
RMM:   2    -0.398710582265E+02    0.14616E+00   -0.50661E-01 12048   0.535E+00    0.107E+00
 LDA+U double counting
  E(e-e)-E(LSDA) =   1.81512853103372     
  E(DC)          =   5.75543659786813     
  DBLE_LDAU      =   7.57056512890185     
RMM:   3    -0.398546866875E+02    0.16372E-01   -0.14403E-01 10758   0.392E+00    0.344E-01
 LDA+U double counting
  E(e-e)-E(LSDA) =   1.79969468086477     
  E(DC)          =   5.77453647903188     
  DBLE_LDAU      =   7.57423115989665     
RMM:   4    -0.398564245880E+02   -0.17379E-02   -0.35717E-02 11732   0.167E+00    0.195E-01
 LDA+U double counting
  E(e-e)-E(LSDA) =   1.80872459267796     
  E(DC)          =   5.75240920229337     
  DBLE_LDAU      =   7.56113379497133     
RMM:   5    -0.398553642335E+02    0.10604E-02   -0.63757E-03 11166   0.775E-01    0.852E-02
 LDA+U double counting
  E(e-e)-E(LSDA) =   1.80452229369013     
  E(DC)          =   5.75792444497093     
  DBLE_LDAU      =   7.56244673866106     
RMM:   6    -0.398555180574E+02   -0.15382E-03   -0.16218E-03  9453   0.318E-01    0.490E-02
 LDA+U double counting
  E(e-e)-E(LSDA) =   1.80581155436224     
  E(DC)          =   5.75324018628773     
  DBLE_LDAU      =   7.55905174064997     
RMM:   7    -0.398555053175E+02    0.12740E-04   -0.21300E-04  6267   0.167E-01
 LDA+U double counting
  E(e-e)-E(LSDA) =   1.80566972812635     
  E(DC)          =   5.74780651002185     
  DBLE_LDAU      =   7.55347623814820     
 LDA+U double counting
  E(e-e)-E(LSDA) =   1.80604458216352     
  E(DC)          =   5.74731530763279     
  DBLE_LDAU      =   7.55335988979631     
   3 F= -.39855505E+02 E0= -.39856281E+02  d E =-.224844E-01  mag=     4.0000
 curvature:  -0.22 expect dE=-0.700E-07 dE for cont linesearch -0.700E-07
 trial: gam= 0.00000 g(F)=  0.340E-45 g(S)=  0.324E-06 ort =-0.178E-03 (trialstep = 0.888E+00)
 search vector abs. value=  0.324E-06
 reached required accuracy - stopping structural energy minimisation
