unknown system                          
           1
     3.939675    0.000000    0.000000
     0.000000    3.939675    0.000000
     0.000000    0.000000    3.939675
   La   Mn   O 
   1   1   3
unknown system                          
           1
     3.869597    0.000000    0.000000
     0.000000    3.869597    0.000000
     0.000000    0.000000    3.869597
   La   Mn   O 
   1   1   3
Direct configuration=     1
   0.00000000  0.00000000  0.00000000
   0.50000064  0.50000064  0.50000064
   0.50000064  0.50000064  0.00000000
   0.50000064  0.00000000  0.50000064
   0.00000000  0.50000064  0.50000064
unknown system                          
           1
     3.908897    0.000000    0.000000
     0.000000    3.908897    0.000000
     0.000000    0.000000    3.908897
   La   Mn   O 
   1   1   3
Direct configuration=     2
   0.00000000  0.00000000  0.00000000
   0.50000064  0.50000064  0.50000064
   0.50000064  0.50000064  0.00000000
   0.50000064  0.00000000  0.50000064
   0.00000000  0.50000064  0.50000064
unknown system                          
           1
     3.908897    0.000000    0.000000
     0.000000    3.908897    0.000000
     0.000000    0.000000    3.908897
   La   Mn   O 
   1   1   3
Direct configuration=     3
   0.00000000  0.00000000  0.00000000
   0.50000064  0.50000064  0.50000064
   0.50000064  0.50000064  0.00000000
   0.50000064  0.00000000  0.50000064
   0.00000000  0.50000064  0.50000064
