 142 142   0   0
  0.1412548E+02  0.1267033E-08  0.1267033E-08  0.1617589E-08  0.1870000E-15
  1.000000000000000E-004
  CAR 
 Cl_Substituted                          
      9.50233873    -22.13489124  301      1.30101423      1.00000000
    -22.135  0.0000E+00  0.0000E+00
    -22.029  0.0000E+00  0.0000E+00
    -21.924  0.0000E+00  0.0000E+00
    -21.819  0.0000E+00  0.0000E+00
    -21.713  0.0000E+00  0.0000E+00
    -21.608  0.0000E+00  0.0000E+00
    -21.502  0.0000E+00  0.0000E+00
    -21.397  0.0000E+00  0.0000E+00
    -21.291  0.0000E+00  0.0000E+00
    -21.186  0.0000E+00  0.0000E+00
    -21.080  0.2632E-16  0.2776E-17
    -20.975  0.3143E-14  0.3342E-15
    -20.869  0.2617E-12  0.2794E-13
    -20.764  0.1535E-10  0.1647E-11
    -20.658  0.6345E-09  0.6856E-10
    -20.553  0.1850E-07  0.2019E-08
    -20.448  0.3808E-06  0.4217E-07
    -20.342  0.5545E-05  0.6269E-06
    -20.237  0.5727E-04  0.6667E-05
    -20.131  0.4215E-03  0.5112E-04
    -20.026  0.2228E-02  0.2860E-03
    -19.920  0.8555E-02  0.1188E-02
    -19.815  0.2432E-01  0.3753E-02
    -19.709  0.5236E-01  0.9275E-02
    -19.604  0.8731E-01  0.1848E-01
    -19.498  0.1142E+00  0.3052E-01
    -19.393  0.1181E+00  0.4298E-01
    -19.288  0.1023E+00  0.5376E-01
    -19.182  0.9194E-01  0.6346E-01
    -19.077  0.1070E+00  0.7474E-01
    -18.971  0.1316E+00  0.8862E-01
    -18.866  0.1306E+00  0.1024E+00
    -18.760  0.9457E-01  0.1124E+00
    -18.655  0.4886E-01  0.1175E+00
    -18.549  0.1791E-01  0.1194E+00
    -18.444  0.4653E-02  0.1199E+00
    -18.338  0.8559E-03  0.1200E+00
    -18.233  0.1114E-03  0.1200E+00
    -18.128  0.1025E-04  0.1200E+00
    -18.022  0.6671E-06  0.1200E+00
    -17.917  0.3066E-07  0.1200E+00
    -17.811  0.9944E-09  0.1200E+00
    -17.706  0.2275E-10  0.1200E+00
    -17.600  0.3671E-12  0.1200E+00
    -17.495  0.4211E-14  0.1200E+00
    -17.389  0.0000E+00  0.1200E+00
    -17.284  0.0000E+00  0.1200E+00
    -17.178  0.0000E+00  0.1200E+00
    -17.073  0.0000E+00  0.1200E+00
    -16.967  0.0000E+00  0.1200E+00
    -16.862  0.0000E+00  0.1200E+00
    -16.757  0.0000E+00  0.1200E+00
    -16.651  0.3685E-16  0.1200E+00
    -16.546  0.4506E-14  0.1200E+00
    -16.440  0.3663E-12  0.1200E+00
    -16.335  0.2115E-10  0.1200E+00
    -16.229  0.8673E-09  0.1200E+00
    -16.124  0.2531E-07  0.1200E+00
    -16.018  0.5268E-06  0.1200E+00
    -15.913  0.7839E-05  0.1200E+00
    -15.807  0.8357E-04  0.1200E+00
    -15.702  0.6396E-03  0.1201E+00
    -15.597  0.3521E-02  0.1204E+00
    -15.491  0.1397E-01  0.1219E+00
    -15.386  0.4013E-01  0.1262E+00
    -15.280  0.8424E-01  0.1350E+00
    -15.175  0.1334E+00  0.1491E+00
    -15.069  0.1727E+00  0.1673E+00
    -14.964  0.2096E+00  0.1894E+00
    -14.858  0.2547E+00  0.2163E+00
    -14.753  0.2805E+00  0.2459E+00
    -14.647  0.2456E+00  0.2718E+00
    -14.542  0.1597E+00  0.2886E+00
    -14.436  0.7536E-01  0.2966E+00
    -14.331  0.2638E-01  0.2993E+00
    -14.226  0.1117E-01  0.3005E+00
    -14.120  0.2063E-01  0.3027E+00
    -14.015  0.5649E-01  0.3086E+00
    -13.909  0.1211E+00  0.3214E+00
    -13.804  0.1980E+00  0.3423E+00
    -13.698  0.2586E+00  0.3696E+00
    -13.593  0.2935E+00  0.4005E+00
    -13.487  0.3121E+00  0.4334E+00
    -13.382  0.3054E+00  0.4656E+00
    -13.276  0.2503E+00  0.4920E+00
    -13.171  0.1585E+00  0.5088E+00
    -13.066  0.7504E-01  0.5167E+00
    -12.960  0.2937E-01  0.5198E+00
    -12.855  0.2073E-01  0.5219E+00
    -12.749  0.3882E-01  0.5260E+00
    -12.644  0.7315E-01  0.5338E+00
    -12.538  0.1066E+00  0.5450E+00
    -12.433  0.1186E+00  0.5575E+00
    -12.327  0.1008E+00  0.5681E+00
    -12.222  0.6531E-01  0.5750E+00
    -12.116  0.3188E-01  0.5784E+00
    -12.011  0.1161E-01  0.5796E+00
    -11.906  0.3415E-02  0.5800E+00
    -11.800  0.2552E-02  0.5802E+00
    -11.695  0.8409E-02  0.5811E+00
    -11.589  0.2582E-01  0.5838E+00
    -11.484  0.5873E-01  0.5900E+00
    -11.378  0.9868E-01  0.6004E+00
    -11.273  0.1231E+00  0.6134E+00
    -11.167  0.1141E+00  0.6255E+00
    -11.062  0.7848E-01  0.6337E+00
    -10.956  0.4013E-01  0.6380E+00
    -10.851  0.1691E-01  0.6397E+00
    -10.745  0.1357E-01  0.6412E+00
    -10.640  0.3155E-01  0.6445E+00
    -10.535  0.7042E-01  0.6519E+00
    -10.429  0.1143E+00  0.6640E+00
    -10.324  0.1322E+00  0.6779E+00
    -10.218  0.1089E+00  0.6894E+00
    -10.113  0.6387E-01  0.6961E+00
    -10.007  0.2668E-01  0.6990E+00
     -9.902  0.7939E-02  0.6998E+00
     -9.796  0.1682E-02  0.7000E+00
     -9.691  0.2562E-03  0.7000E+00
     -9.585  0.5974E-04  0.7000E+00
     -9.480  0.2890E-03  0.7000E+00
     -9.375  0.1850E-02  0.7002E+00
     -9.269  0.8782E-02  0.7012E+00
     -9.164  0.3082E-01  0.7044E+00
     -9.058  0.8020E-01  0.7129E+00
     -8.953  0.1552E+00  0.7292E+00
     -8.847  0.2239E+00  0.7528E+00
     -8.742  0.2416E+00  0.7783E+00
     -8.636  0.1958E+00  0.7990E+00
     -8.531  0.1208E+00  0.8117E+00
     -8.425  0.6192E-01  0.8182E+00
     -8.320  0.4318E-01  0.8228E+00
     -8.215  0.6558E-01  0.8297E+00
     -8.109  0.1121E+00  0.8415E+00
     -8.004  0.1513E+00  0.8575E+00
     -7.898  0.1582E+00  0.8742E+00
     -7.793  0.1392E+00  0.8889E+00
     -7.687  0.1203E+00  0.9015E+00
     -7.582  0.1126E+00  0.9134E+00
     -7.476  0.1028E+00  0.9243E+00
     -7.371  0.7801E-01  0.9325E+00
     -7.265  0.4498E-01  0.9372E+00
     -7.160  0.1903E-01  0.9392E+00
     -7.054  0.5965E-02  0.9399E+00
     -6.949  0.2318E-02  0.9401E+00
     -6.844  0.5266E-02  0.9407E+00
     -6.738  0.1801E-01  0.9426E+00
     -6.633  0.4775E-01  0.9476E+00
     -6.527  0.9759E-01  0.9579E+00
     -6.422  0.1588E+00  0.9746E+00
     -6.316  0.2100E+00  0.9968E+00
     -6.211  0.2262E+00  0.1021E+01
     -6.105  0.1995E+00  0.1042E+01
     -6.000  0.1576E+00  0.1058E+01
     -5.894  0.1438E+00  0.1073E+01
     -5.789  0.1720E+00  0.1092E+01
     -5.684  0.2144E+00  0.1114E+01
     -5.578  0.2335E+00  0.1139E+01
     -5.473  0.2189E+00  0.1162E+01
     -5.367  0.1922E+00  0.1182E+01
     -5.262  0.1823E+00  0.1201E+01
     -5.156  0.1951E+00  0.1222E+01
     -5.051  0.2117E+00  0.1244E+01
     -4.945  0.2182E+00  0.1267E+01
     -4.840  0.2190E+00  0.1290E+01
     -4.734  0.2167E+00  0.1313E+01
     -4.629  0.2103E+00  0.1335E+01
     -4.523  0.2117E+00  0.1358E+01
     -4.418  0.2385E+00  0.1383E+01
     -4.313  0.2912E+00  0.1414E+01
     -4.207  0.3454E+00  0.1450E+01
     -4.102  0.3680E+00  0.1489E+01
     -3.996  0.3504E+00  0.1526E+01
     -3.891  0.3167E+00  0.1559E+01
     -3.785  0.2914E+00  0.1590E+01
     -3.680  0.2722E+00  0.1619E+01
     -3.574  0.2468E+00  0.1645E+01
     -3.469  0.2206E+00  0.1668E+01
     -3.363  0.2094E+00  0.1690E+01
     -3.258  0.2123E+00  0.1712E+01
     -3.153  0.2118E+00  0.1735E+01
     -3.047  0.2000E+00  0.1756E+01
     -2.942  0.1869E+00  0.1776E+01
     -2.836  0.1814E+00  0.1795E+01
     -2.731  0.1884E+00  0.1815E+01
     -2.625  0.2174E+00  0.1837E+01
     -2.520  0.2658E+00  0.1866E+01
     -2.414  0.3102E+00  0.1898E+01
     -2.309  0.3359E+00  0.1934E+01
     -2.203  0.3560E+00  0.1971E+01
     -2.098  0.3874E+00  0.2012E+01
     -1.993  0.4242E+00  0.2057E+01
     -1.887  0.4429E+00  0.2103E+01
     -1.782  0.4288E+00  0.2149E+01
     -1.676  0.3901E+00  0.2190E+01
     -1.571  0.3429E+00  0.2226E+01
     -1.465  0.2912E+00  0.2257E+01
     -1.360  0.2317E+00  0.2281E+01
     -1.254  0.1731E+00  0.2299E+01
     -1.149  0.1380E+00  0.2314E+01
     -1.043  0.1446E+00  0.2329E+01
     -0.938  0.1864E+00  0.2349E+01
     -0.832  0.2293E+00  0.2373E+01
     -0.727  0.2344E+00  0.2398E+01
     -0.622  0.1932E+00  0.2418E+01
     -0.516  0.1340E+00  0.2432E+01
     -0.411  0.9513E-01  0.2442E+01
     -0.305  0.9132E-01  0.2452E+01
     -0.200  0.1056E+00  0.2463E+01
     -0.094  0.1113E+00  0.2475E+01
      0.011  0.9766E-01  0.2485E+01
      0.117  0.7088E-01  0.2493E+01
      0.222  0.4203E-01  0.2497E+01
      0.328  0.2040E-01  0.2499E+01
      0.433  0.1214E-01  0.2500E+01
      0.538  0.2403E-01  0.2503E+01
      0.644  0.6836E-01  0.2510E+01
      0.749  0.1518E+00  0.2526E+01
      0.855  0.2481E+00  0.2552E+01
      0.960  0.2996E+00  0.2584E+01
      1.066  0.2746E+00  0.2613E+01
      1.171  0.2139E+00  0.2635E+01
      1.277  0.1872E+00  0.2655E+01
      1.382  0.2112E+00  0.2677E+01
      1.488  0.2390E+00  0.2703E+01
      1.593  0.2229E+00  0.2726E+01
      1.698  0.1635E+00  0.2743E+01
      1.804  0.9434E-01  0.2753E+01
      1.909  0.4278E-01  0.2758E+01
      2.015  0.1506E-01  0.2759E+01
      2.120  0.4032E-02  0.2760E+01
      2.226  0.8050E-03  0.2760E+01
      2.331  0.1330E-03  0.2760E+01
      2.437  0.1397E-03  0.2760E+01
      2.542  0.7335E-03  0.2760E+01
      2.648  0.3088E-02  0.2760E+01
      2.753  0.9926E-02  0.2761E+01
      2.859  0.2584E-01  0.2764E+01
      2.964  0.5754E-01  0.2770E+01
      3.069  0.1100E+00  0.2782E+01
      3.175  0.1724E+00  0.2800E+01
      3.280  0.2135E+00  0.2823E+01
      3.386  0.2138E+00  0.2845E+01
      3.491  0.1966E+00  0.2866E+01
      3.597  0.1985E+00  0.2887E+01
      3.702  0.2204E+00  0.2910E+01
      3.808  0.2292E+00  0.2934E+01
      3.913  0.1983E+00  0.2955E+01
      4.019  0.1343E+00  0.2969E+01
      4.124  0.7024E-01  0.2977E+01
      4.229  0.3288E-01  0.2980E+01
      4.335  0.2731E-01  0.2983E+01
      4.440  0.4726E-01  0.2988E+01
      4.546  0.8645E-01  0.2997E+01
      4.651  0.1377E+00  0.3012E+01
      4.757  0.1881E+00  0.3031E+01
      4.862  0.2185E+00  0.3055E+01
      4.968  0.2104E+00  0.3077E+01
      5.073  0.1613E+00  0.3094E+01
      5.179  0.9508E-01  0.3104E+01
      5.284  0.4202E-01  0.3108E+01
      5.389  0.1415E-01  0.3110E+01
      5.495  0.5764E-02  0.3110E+01
      5.600  0.9612E-02  0.3111E+01
      5.706  0.2399E-01  0.3114E+01
      5.811  0.4835E-01  0.3119E+01
      5.917  0.8014E-01  0.3127E+01
      6.022  0.1201E+00  0.3140E+01
      6.128  0.1731E+00  0.3158E+01
      6.233  0.2354E+00  0.3183E+01
      6.339  0.2884E+00  0.3214E+01
      6.444  0.3103E+00  0.3246E+01
      6.550  0.2931E+00  0.3277E+01
      6.655  0.2517E+00  0.3304E+01
      6.760  0.2113E+00  0.3326E+01
      6.866  0.1800E+00  0.3345E+01
      6.971  0.1449E+00  0.3360E+01
      7.077  0.9961E-01  0.3371E+01
      7.182  0.5478E-01  0.3377E+01
      7.288  0.2332E-01  0.3379E+01
      7.393  0.7526E-02  0.3380E+01
      7.499  0.1809E-02  0.3380E+01
      7.604  0.3191E-03  0.3380E+01
      7.710  0.4085E-04  0.3380E+01
      7.815  0.3764E-05  0.3380E+01
      7.920  0.2481E-06  0.3380E+01
      8.026  0.1165E-07  0.3380E+01
      8.131  0.3886E-09  0.3380E+01
      8.237  0.9183E-11  0.3380E+01
      8.342  0.1535E-12  0.3380E+01
      8.448  0.1811E-14  0.3380E+01
      8.553  0.2106E-16  0.3380E+01
      8.659  0.0000E+00  0.3380E+01
      8.764  0.0000E+00  0.3380E+01
      8.870  0.0000E+00  0.3380E+01
      8.975  0.0000E+00  0.3380E+01
      9.081  0.0000E+00  0.3380E+01
      9.186  0.0000E+00  0.3380E+01
      9.291  0.0000E+00  0.3380E+01
      9.397  0.0000E+00  0.3380E+01
      9.502  0.0000E+00  0.3380E+01
