       N       E                     dE             d eps       ncg     rms          rms(c)
DAV:   1    -0.708878063696E+03   -0.70888E+03   -0.15512E-01   902   0.177E+00    0.182E+00
RMM:   2    -0.708946107076E+03   -0.68043E-01   -0.47378E-01   697   0.102E+00    0.313E+01
RMM:   3    -0.707792994061E+03    0.11531E+01   -0.31703E-01   680   0.105E+00    0.158E+00
RMM:   4    -0.707487324471E+03    0.30567E+00   -0.18089E-01   681   0.765E-01    0.919E-01
RMM:   5    -0.707481004507E+03    0.63200E-02   -0.10821E-02   738   0.247E-01    0.434E-01
RMM:   6    -0.707481274806E+03   -0.27030E-03   -0.13915E-03   779   0.552E-02    0.375E-01
RMM:   7    -0.707481419364E+03   -0.14456E-03   -0.14859E-04   547   0.276E-02    0.291E-01
RMM:   8    -0.707481686466E+03   -0.26710E-03   -0.53479E-04   704   0.392E-02    0.198E-01
RMM:   9    -0.707481584335E+03    0.10213E-03   -0.88507E-05   593   0.212E-02    0.140E-01
RMM:  10    -0.707481522059E+03    0.62276E-04   -0.17469E-05   428   0.899E-03    0.104E-01
RMM:  11    -0.707481474003E+03    0.48056E-04   -0.17597E-05   421   0.726E-03    0.645E-02
RMM:  12    -0.707481463449E+03    0.10554E-04   -0.63120E-06   382   0.560E-03    0.494E-02
RMM:  13    -0.707481453740E+03    0.97085E-05   -0.48746E-06   371   0.433E-03
   1 F= -.71248919E+03 E0= -.71186052E+03  d E =-.712489E+03
       N       E                     dE             d eps       ncg     rms          rms(c)
DAV:   1    -0.707481668016E+03   -0.20457E-03   -0.16053E-03   680   0.701E-02    0.310E-02
RMM:   2    -0.707481667578E+03    0.43785E-06   -0.65425E-05   546   0.154E-02    0.164E-02
RMM:   3    -0.707481668142E+03   -0.56402E-06   -0.68954E-06   360   0.823E-03    0.136E-02
RMM:   4    -0.707481669788E+03   -0.16455E-05   -0.34198E-06   341   0.442E-03    0.184E-02
RMM:   5    -0.707481668322E+03    0.14660E-05   -0.12384E-06   337   0.336E-03
   2 F= -.71248919E+03 E0= -.71186128E+03  d E =-.433249E-05
       N       E                     dE             d eps       ncg     rms          rms(c)
DAV:   1    -0.707481615953E+03    0.53835E-04   -0.11906E-04   696   0.194E-02    0.860E-03
RMM:   2    -0.707481615623E+03    0.32943E-06   -0.45429E-06   341   0.424E-03    0.584E-03
RMM:   3    -0.707481615585E+03    0.38377E-07   -0.67786E-07   322   0.246E-03    0.384E-03
RMM:   4    -0.707481615530E+03    0.55003E-07   -0.16323E-07   166   0.126E-03    0.261E-03
RMM:   5    -0.707481615474E+03    0.55737E-07   -0.25509E-08    96   0.108E-03
   3 F= -.71248919E+03 E0= -.71186143E+03  d E =-.838813E-05
       N       E                     dE             d eps       ncg     rms          rms(c)
DAV:   1    -0.707481673432E+03   -0.57903E-04   -0.37376E-04   676   0.331E-02    0.107E-02
RMM:   2    -0.707481675771E+03   -0.23389E-05   -0.13561E-05   349   0.715E-03    0.156E-02
RMM:   3    -0.707481675392E+03    0.37979E-06   -0.22439E-06   338   0.469E-03    0.112E-02
RMM:   4    -0.707481674272E+03    0.11196E-05   -0.82170E-07   305   0.193E-03    0.288E-03
RMM:   5    -0.707481674162E+03    0.10974E-06   -0.18780E-07   205   0.148E-03
   4 F= -.71248920E+03 E0= -.71186142E+03  d E =-.938647E-05
       N       E                     dE             d eps       ncg     rms          rms(c)
DAV:   1    -0.707481695876E+03   -0.21604E-04   -0.70623E-05   648   0.146E-02    0.561E-03
RMM:   2    -0.707481696025E+03   -0.14860E-06   -0.23656E-06   339   0.340E-03    0.315E-03
RMM:   3    -0.707481695982E+03    0.42426E-07   -0.41696E-07   316   0.200E-03    0.140E-03
RMM:   4    -0.707481696059E+03   -0.76692E-07   -0.35828E-08   103   0.107E-03    0.330E-03
RMM:   5    -0.707481695963E+03    0.96428E-07   -0.11359E-08    84   0.101E-03
   5 F= -.71248920E+03 E0= -.71186143E+03  d E =-.985509E-05
