 vasp.5.3.5 31Mar14 (build Nov 20 2015 06:35:35) complex                        
  
 executed on             LinuxIFC date 2016.03.26  03:25:24
 running on   32 total cores
 distrk:  each k-point on   32 cores,    1 groups
 distr:  one band on NCORES_PER_BAND=  32 cores,    1 groups


--------------------------------------------------------------------------------------------------------


 INCAR:
 POTCAR:    PAW_PBE C 08Apr2002                   
 POTCAR:    PAW_PBE H 15Jun2001                   
 POTCAR:    PAW_PBE Br 06Sep2000                  
 POTCAR:    PAW_PBE Fe 06Sep2000                  
 POTCAR:    PAW_PBE N 08Apr2002                   
 POTCAR:    PAW_PBE S 06Sep2000                   

 ----------------------------------------------------------------------------- 
|                                                                             |
|           W    W    AA    RRRRR   N    N  II  N    N   GGGG   !!!           |
|           W    W   A  A   R    R  NN   N  II  NN   N  G    G  !!!           |
|           W    W  A    A  R    R  N N  N  II  N N  N  G       !!!           |
|           W WW W  AAAAAA  RRRRR   N  N N  II  N  N N  G  GGG   !            |
|           WW  WW  A    A  R   R   N   NN  II  N   NN  G    G                |
|           W    W  A    A  R    R  N    N  II  N    N   GGGG   !!!           |
|                                                                             |
|      For optimal performance we recommend to set                            |
|        NCORE= 4 - approx SQRT( number of cores)                             |
|      NCORE specifies how many cores store one orbital (NPAR=cpu/NCORE).     |
|      This setting can  greatly improve the performance of VASP for DFT.     |
|      The default, NPAR=number of cores might be grossly inefficient         |
|      on modern multi-core architectures or massively parallel machines.     |
|      Do your own testing !!!!                                               |
|      Unfortunately you need to use the default for GW and RPA calculations. |
|      (for HF NCORE is supported but not extensively tested yet)             |
|                                                                             |
 ----------------------------------------------------------------------------- 


 ----------------------------------------------------------------------------- 
|                                                                             |
|  ADVICE TO THIS USER RUNNING 'VASP/VAMP'   (HEAR YOUR MASTER'S VOICE ...):  |
|                                                                             |
|      You have switched on vdW-DFT.                                          |
|      This routine was written and supplied by Jiri Klimes.                  |
|      We recommed that you carefully read and cite the following             |
|      publication                                                            |
|      J. Klimes, D.R. Bowler, A. Michelides                                  |
|        J. Phys.: Cond Matt. 22 022201 (2010)                                |
|      J. Klimes, D.R. Bowler, A. Michelides                                  |
|        Phys. Rev. B. 83, 195131 (2011)                                      |
|      and references therein.                                                |
|                                                                             |
 ----------------------------------------------------------------------------- 

 POTCAR:    PAW_PBE C 08Apr2002                   
   VRHFIN =C: s2p2                                                              
   LEXCH  = PE                                                                  
   EATOM  =   147.1560 eV,   10.8157 Ry                                         
                                                                                
   TITEL  = PAW_PBE C 08Apr2002                                                 
   LULTRA =        F    use ultrasoft PP ?                                      
   IUNSCR =        1    unscreen: 0-lin 1-nonlin 2-no                           
   RPACOR =    1.200    partial core radius                                     
   POMASS =   12.011; ZVAL   =    4.000    mass and valenz                      
   RCORE  =    1.500    outmost cutoff radius                                   
   RWIGS  =    1.630; RWIGS  =    0.863    wigner-seitz radius (au A)           
   ENMAX  =  400.000; ENMIN  =  300.000 eV                                      
   ICORE  =        2    local potential                                         
   LCOR   =        T    correct aug charges                                     
   LPAW   =        T    paw PP                                                  
   EAUG   =  644.873                                                            
   DEXC   =    0.000                                                            
   RMAX   =    1.529    core radius for proj-oper                               
   RAUG   =    1.300    factor for augmentation sphere                          
   RDEP   =    1.501    radius for radial grids                                 
   RDEPT  =    1.300    core radius for aug-charge                              
                                                                                
   Atomic configuration                                                         
    4 entries                                                                   
     n  l   j            E        occ.                                          
     1  0  0.50      -273.3789   2.0000                                         
     2  0  0.50       -13.7508   2.0000                                         
     2  1  0.50        -5.2854   2.0000                                         
     3  2  1.50        -5.4423   0.0000                                         
   Description                                                                  
     l       E           TYP  RCUT    TYP  RCUT                                 
     0    -13.7508458     23  1.200                                             
     0     -8.2022199     23  1.200                                             
     1     -5.2854383     23  1.500                                             
     1     34.0145650     23  1.500                                             
     2     -5.4423304      7  1.500                                             
  local pseudopotential read in
  partial core-charges read in
  partial kinetic energy density read in
  atomic valenz-charges read in
  non local Contribution for L=           0  read in
    real space projection operators read in
  non local Contribution for L=           0  read in
    real space projection operators read in
  non local Contribution for L=           1  read in
    real space projection operators read in
  non local Contribution for L=           1  read in
    real space projection operators read in
    PAW grid and wavefunctions read in
 
   number of l-projection  operators is LMAX  =           4
   number of lm-projection operators is LMMAX =           8
 
 POTCAR:    PAW_PBE H 15Jun2001                   
   VRHFIN =H: ultrasoft test                                                    
   LEXCH  = PE                                                                  
   EATOM  =    12.4884 eV,    0.9179 Ry                                         
                                                                                
   TITEL  = PAW_PBE H 15Jun2001                                                 
   LULTRA =        F    use ultrasoft PP ?                                      
   IUNSCR =        0    unscreen: 0-lin 1-nonlin 2-no                           
   RPACOR =    0.000    partial core radius                                     
   POMASS =    1.000; ZVAL   =    1.000    mass and valenz                      
   RCORE  =    1.100    outmost cutoff radius                                   
   RWIGS  =    0.700; RWIGS  =    0.370    wigner-seitz radius (au A)           
   ENMAX  =  250.000; ENMIN  =  200.000 eV                                      
   RCLOC  =    0.701    cutoff for local pot                                    
   LCOR   =        T    correct aug charges                                     
   LPAW   =        T    paw PP                                                  
   EAUG   =  400.000                                                            
   RMAX   =    1.123    core radius for proj-oper                               
   RAUG   =    1.200    factor for augmentation sphere                          
   RDEP   =    1.112    radius for radial grids                                 
   RDEPT  =    0.926    core radius for aug-charge                              
                                                                                
   Atomic configuration                                                         
    2 entries                                                                   
     n  l   j            E        occ.                                          
     1  0  0.50        -6.4927   1.0000                                         
     2  1  0.50        -3.4015   0.0000                                         
   Description                                                                  
     l       E           TYP  RCUT    TYP  RCUT                                 
     0     -6.4927494     23  1.100                                             
     0      6.8029130     23  1.100                                             
     1     -4.0817478     23  1.100                                             
  local pseudopotential read in
  atomic valenz-charges read in
  non local Contribution for L=           0  read in
    real space projection operators read in
  non local Contribution for L=           0  read in
    real space projection operators read in
  non local Contribution for L=           1  read in
    real space projection operators read in
    PAW grid and wavefunctions read in
 
   number of l-projection  operators is LMAX  =           3
   number of lm-projection operators is LMMAX =           5
 
 POTCAR:    PAW_PBE Br 06Sep2000                  
   VRHFIN =Br: s2p5                                                             
   LEXCH  = PE                                                                  
   EATOM  =   368.4488 eV,   27.0802 Ry                                         
                                                                                
   TITEL  = PAW_PBE Br 06Sep2000                                                
   LULTRA =        F    use ultrasoft PP ?                                      
   IUNSCR =        1    unscreen: 0-lin 1-nonlin 2-no                           
   RPACOR =    1.900    partial core radius                                     
   POMASS =   79.904; ZVAL   =    7.000    mass and valenz                      
   RCORE  =    2.100    outmost cutoff radius                                   
   RWIGS  =    2.200; RWIGS  =    1.164    wigner-seitz radius (au A)           
   ENMAX  =  216.285; ENMIN  =  162.214 eV                                      
   ICORE  =        3    local potential                                         
   LCOR   =        T    correct aug charges                                     
   LPAW   =        T    paw PP                                                  
   EAUG   =  503.852                                                            
   DEXC   =    0.000                                                            
   RMAX   =    2.139    core radius for proj-oper                               
   RAUG   =    1.300    factor for augmentation sphere                          
   RDEP   =    2.186    radius for radial grids                                 
   RDEPT  =    1.890    core radius for aug-charge                              
                                                                                
   Atomic configuration                                                         
   10 entries                                                                   
     n  l   j            E        occ.                                          
     1  0  0.50    -13316.2796   2.0000                                         
     2  0  0.50     -1732.8239   2.0000                                         
     2  1  1.50     -1528.2193   6.0000                                         
     3  0  0.50      -238.0460   2.0000                                         
     3  1  1.50      -173.4609   6.0000                                         
     3  2  2.50       -66.7132  10.0000                                         
     4  0  0.50       -20.1334   2.0000                                         
     4  1  0.50        -7.8591   5.0000                                         
     4  2  2.50        -8.1635   0.0000                                         
     4  3  2.50        -8.1635   0.0000                                         
   Description                                                                  
     l       E           TYP  RCUT    TYP  RCUT                                 
     0    -20.1333652     23  2.100                                             
     0    -21.4939478     23  2.100                                             
     1     -7.8591052     23  2.100                                             
     1     -3.1608434     23  2.100                                             
     2     -8.1634956     23  2.100                                             
     3     -1.3605826      7  2.100                                             
  local pseudopotential read in
  partial core-charges read in
  partial kinetic energy density read in
  atomic valenz-charges read in
  non local Contribution for L=           0  read in
    real space projection operators read in
  non local Contribution for L=           0  read in
    real space projection operators read in
  non local Contribution for L=           1  read in
    real space projection operators read in
  non local Contribution for L=           1  read in
    real space projection operators read in
  non local Contribution for L=           2  read in
    real space projection operators read in
    PAW grid and wavefunctions read in
 
   number of l-projection  operators is LMAX  =           5
   number of lm-projection operators is LMMAX =          13
 
 POTCAR:    PAW_PBE Fe 06Sep2000                  
   VRHFIN =Fe:  d7 s1                                                           
   LEXCH  = PE                                                                  
   EATOM  =   594.3153 eV,   43.6809 Ry                                         
                                                                                
   TITEL  = PAW_PBE Fe 06Sep2000                                                
   LULTRA =        F    use ultrasoft PP ?                                      
   IUNSCR =        1    unscreen: 0-lin 1-nonlin 2-no                           
   RPACOR =    2.000    partial core radius                                     
   POMASS =   55.847; ZVAL   =    8.000    mass and valenz                      
   RCORE  =    2.300    outmost cutoff radius                                   
   RWIGS  =    2.460; RWIGS  =    1.302    wigner-seitz radius (au A)           
   ENMAX  =  267.882; ENMIN  =  200.911 eV                                      
   RCLOC  =    1.701    cutoff for local pot                                    
   LCOR   =        T    correct aug charges                                     
   LPAW   =        T    paw PP                                                  
   EAUG   =  511.368                                                            
   DEXC   =    0.000                                                            
   RMAX   =    2.356    core radius for proj-oper                               
   RAUG   =    1.300    factor for augmentation sphere                          
   RDEP   =    2.442    radius for radial grids                                 
   RDEPT  =    1.890    core radius for aug-charge                              
                                                                                
   Atomic configuration                                                         
    9 entries                                                                   
     n  l   j            E        occ.                                          
     1  0  0.50     -6993.8440   2.0000                                         
     2  0  0.50      -814.6047   2.0000                                         
     2  1  1.50      -693.3689   6.0000                                         
     3  0  0.50       -89.4732   2.0000                                         
     3  1  1.50       -55.6373   6.0000                                         
     3  2  2.50        -3.8151   7.0000                                         
     4  0  0.50        -4.2551   1.0000                                         
     4  1  1.50        -3.4015   0.0000                                         
     4  3  2.50        -1.3606   0.0000                                         
   Description                                                                  
     l       E           TYP  RCUT    TYP  RCUT                                 
     2     -3.8151135     23  2.300                                             
     2     -5.1756961     23  2.300                                             
     0     -4.2550963     23  2.300                                             
     0      7.2035603     23  2.300                                             
     1     -2.7211652     23  2.300                                             
     1     18.4316424     23  2.300                                             
  local pseudopotential read in
  partial core-charges read in
  partial kinetic energy density read in
  atomic valenz-charges read in
  non local Contribution for L=           2  read in
    real space projection operators read in
  non local Contribution for L=           2  read in
    real space projection operators read in
  non local Contribution for L=           0  read in
    real space projection operators read in
  non local Contribution for L=           0  read in
    real space projection operators read in
  non local Contribution for L=           1  read in
    real space projection operators read in
  non local Contribution for L=           1  read in
    real space projection operators read in
    PAW grid and wavefunctions read in
 
   number of l-projection  operators is LMAX  =           6
   number of lm-projection operators is LMMAX =          18
 
 POTCAR:    PAW_PBE N 08Apr2002                   
   VRHFIN =N: s2p3                                                              
   LEXCH  = PE                                                                  
   EATOM  =   264.5486 eV,   19.4438 Ry                                         
                                                                                
   TITEL  = PAW_PBE N 08Apr2002                                                 
   LULTRA =        F    use ultrasoft PP ?                                      
   IUNSCR =        1    unscreen: 0-lin 1-nonlin 2-no                           
   RPACOR =    1.200    partial core radius                                     
   POMASS =   14.001; ZVAL   =    5.000    mass and valenz                      
   RCORE  =    1.500    outmost cutoff radius                                   
   RWIGS  =    1.400; RWIGS  =    0.741    wigner-seitz radius (au A)           
   ENMAX  =  400.000; ENMIN  =  300.000 eV                                      
   ICORE  =        2    local potential                                         
   LCOR   =        T    correct aug charges                                     
   LPAW   =        T    paw PP                                                  
   EAUG   =  627.112                                                            
   DEXC   =    0.000                                                            
   RMAX   =    1.529    core radius for proj-oper                               
   RAUG   =    1.300    factor for augmentation sphere                          
   RDEP   =    1.514    radius for radial grids                                 
   RDEPT  =    1.338    core radius for aug-charge                              
                                                                                
   Atomic configuration                                                         
    4 entries                                                                   
     n  l   j            E        occ.                                          
     1  0  0.50      -384.7179   2.0000                                         
     2  0  0.50       -18.5828   2.0000                                         
     2  1  0.50        -7.0898   3.0000                                         
     3  2  1.50        -6.8029   0.0000                                         
   Description                                                                  
     l       E           TYP  RCUT    TYP  RCUT                                 
     0    -18.5828119     23  1.200                                             
     0    -13.5018863     23  1.200                                             
     1     -7.0897853     23  1.500                                             
     1      9.5240782     23  1.500                                             
     2     -6.8029130      7  1.500                                             
  local pseudopotential read in
  partial core-charges read in
  partial kinetic energy density read in
  atomic valenz-charges read in
  non local Contribution for L=           0  read in
    real space projection operators read in
  non local Contribution for L=           0  read in
    real space projection operators read in
  non local Contribution for L=           1  read in
    real space projection operators read in
  non local Contribution for L=           1  read in
    real space projection operators read in
    PAW grid and wavefunctions read in
 
   number of l-projection  operators is LMAX  =           4
   number of lm-projection operators is LMMAX =           8
 
 POTCAR:    PAW_PBE S 06Sep2000                   
   VRHFIN =S : s2p4                                                             
   LEXCH  = PE                                                                  
   EATOM  =   276.8230 eV,   20.3459 Ry                                         
                                                                                
   TITEL  = PAW_PBE S 06Sep2000                                                 
   LULTRA =        F    use ultrasoft PP ?                                      
   IUNSCR =        1    unscreen: 0-lin 1-nonlin 2-no                           
   RPACOR =    1.500    partial core radius                                     
   POMASS =   32.066; ZVAL   =    6.000    mass and valenz                      
   RCORE  =    1.900    outmost cutoff radius                                   
   RWIGS  =    2.200; RWIGS  =    1.164    wigner-seitz radius (au A)           
   ENMAX  =  258.689; ENMIN  =  194.016 eV                                      
   ICORE  =        2    local potential                                         
   LCOR   =        T    correct aug charges                                     
   LPAW   =        T    paw PP                                                  
   EAUG   =  335.092                                                            
   DEXC   =    0.000                                                            
   RMAX   =    1.942    core radius for proj-oper                               
   RAUG   =    1.300    factor for augmentation sphere                          
   RDEP   =    1.954    radius for radial grids                                 
   RDEPT  =    1.744    core radius for aug-charge                              
                                                                                
   Atomic configuration                                                         
    6 entries                                                                   
     n  l   j            E        occ.                                          
     1  0  0.50     -2405.8406   2.0000                                         
     2  0  0.50      -211.7007   2.0000                                         
     2  1  1.50      -156.4958   6.0000                                         
     3  0  0.50       -17.2562   2.0000                                         
     3  1  0.50        -7.0085   4.0000                                         
     3  2  1.50        -6.8029   0.0000                                         
   Description                                                                  
     l       E           TYP  RCUT    TYP  RCUT                                 
     0    -17.2561641     23  1.900                                             
     0    -15.8743224     23  1.900                                             
     1     -7.0085400     23  1.900                                             
     1     -2.7779785     23  1.900                                             
     2     -6.8029130     23  1.900                                             
  local pseudopotential read in
  partial core-charges read in
  partial kinetic energy density read in
  atomic valenz-charges read in
  non local Contribution for L=           0  read in
    real space projection operators read in
  non local Contribution for L=           0  read in
    real space projection operators read in
  non local Contribution for L=           1  read in
    real space projection operators read in
  non local Contribution for L=           1  read in
    real space projection operators read in
    PAW grid and wavefunctions read in
 
   number of l-projection  operators is LMAX  =           4
   number of lm-projection operators is LMMAX =           8
 
 Optimization of the real space projectors (new method)

 maximal supplied QI-value         = 25.13
 optimisation between [QCUT,QGAM] = [ 11.56, 23.12] = [ 37.43,149.72] Ry 
 Optimized for a Real-space Cutoff    1.04 Angstroem

   l    n(q)    QCUT    max X(q) W(low)/X(q) W(high)/X(q)  e(spline) 
   0      7    11.561   115.676    0.20E-03    0.60E-03    0.21E-06
   0      7    11.561    87.132    0.20E-03    0.59E-03    0.21E-06
   1      7    11.561     4.429    0.23E-03    0.35E-03    0.15E-06
   1      7    11.561     2.733    0.18E-03    0.25E-03    0.12E-06
 Optimization of the real space projectors (new method)

 maximal supplied QI-value         = 34.20
 optimisation between [QCUT,QGAM] = [ 11.63, 23.26] = [ 37.87,151.49] Ry 
 Optimized for a Real-space Cutoff    1.14 Angstroem

   l    n(q)    QCUT    max X(q) W(low)/X(q) W(high)/X(q)  e(spline) 
   0      8    11.629    19.460    0.27E-03    0.65E-03    0.17E-06
   0      8    11.629    12.209    0.25E-03    0.62E-03    0.16E-06
   1      7    11.629     4.655    0.29E-03    0.85E-04    0.19E-06
 Optimization of the real space projectors (new method)

 maximal supplied QI-value         = 17.95
 optimisation between [QCUT,QGAM] = [ 11.67, 23.34] = [ 38.13,152.52] Ry 
 Optimized for a Real-space Cutoff    1.14 Angstroem

   l    n(q)    QCUT    max X(q) W(low)/X(q) W(high)/X(q)  e(spline) 
   0      8    11.669   175.082    0.45E-03    0.17E-03    0.11E-06
   0      8    11.669   174.004    0.43E-03    0.17E-03    0.11E-06
   1      7    11.669    54.315    0.15E-03    0.81E-03    0.16E-06
   1      7    11.669    42.441    0.15E-03    0.80E-03    0.16E-06
   2      7    11.669     3.596    0.46E-03    0.17E-03    0.47E-07
 Optimization of the real space projectors (new method)

 maximal supplied QI-value         = 16.25
 optimisation between [QCUT,QGAM] = [ 11.54, 23.24] = [ 37.28,151.24] Ry 
 Optimized for a Real-space Cutoff    1.36 Angstroem

   l    n(q)    QCUT    max X(q) W(low)/X(q) W(high)/X(q)  e(spline) 
   2      9    11.539    80.901    0.48E-03    0.49E-03    0.13E-06
   2      9    11.539    75.754    0.49E-03    0.50E-03    0.13E-06
   0      9    11.539    58.752    0.78E-04    0.57E-04    0.19E-06
   0      9    11.539    30.679    0.72E-04    0.52E-04    0.18E-06
   1      9    11.539    17.977    0.35E-03    0.18E-03    0.12E-06
   1      9    11.539    13.559    0.29E-03    0.15E-03    0.10E-06
 Optimization of the real space projectors (new method)

 maximal supplied QI-value         = 25.13
 optimisation between [QCUT,QGAM] = [ 11.56, 23.12] = [ 37.43,149.72] Ry 
 Optimized for a Real-space Cutoff    1.25 Angstroem

   l    n(q)    QCUT    max X(q) W(low)/X(q) W(high)/X(q)  e(spline) 
   0      9    11.561    79.467    0.52E-04    0.16E-03    0.37E-06
   0      9    11.561    66.151    0.51E-04    0.16E-03    0.37E-06
   1      8    11.561    18.886    0.46E-03    0.28E-03    0.80E-06
   1      8    11.561    13.488    0.47E-03    0.29E-03    0.82E-06
 Optimization of the real space projectors (new method)

 maximal supplied QI-value         = 19.84
 optimisation between [QCUT,QGAM] = [ 11.51, 23.22] = [ 37.09,150.92] Ry 
 Optimized for a Real-space Cutoff    1.18 Angstroem

   l    n(q)    QCUT    max X(q) W(low)/X(q) W(high)/X(q)  e(spline) 
   0      8    11.508   187.594    0.17E-03    0.26E-03    0.48E-07
   0      8    11.508   164.243    0.17E-03    0.26E-03    0.48E-07
   1      8    11.508    67.533    0.38E-03    0.13E-03    0.91E-07
   1      8    11.508    50.729    0.37E-03    0.12E-03    0.89E-07

 ----------------------------------------------------------------------------- 
|                                                                             |
|  ADVICE TO THIS USER RUNNING 'VASP/VAMP'   (HEAR YOUR MASTER'S VOICE ...):  |
|                                                                             |
|      You enforced a specific xc-type in the INCAR file,                     |
|      a different type was found on the POTCAR file                          |
|          I HOPE YOU KNOW, WHAT YOU ARE  DOING                               |
|                                                                             |
 ----------------------------------------------------------------------------- 

  PAW_PBE C 08Apr2002                   :
 energy of atom  1       EATOM= -147.1560
 kinetic energy error for atom=    0.0071 (will be added to EATOM!!)
  PAW_PBE H 15Jun2001                   :
 energy of atom  2       EATOM=  -12.4884
 kinetic energy error for atom=    0.0014 (will be added to EATOM!!)
  PAW_PBE Br 06Sep2000                  :
 energy of atom  3       EATOM= -368.4488
 kinetic energy error for atom=    0.0011 (will be added to EATOM!!)
  PAW_PBE Fe 06Sep2000                  :
 energy of atom  4       EATOM= -594.3153
 kinetic energy error for atom=    0.0026 (will be added to EATOM!!)
  PAW_PBE N 08Apr2002                   :
 energy of atom  5       EATOM= -264.5486
 kinetic energy error for atom=    0.0125 (will be added to EATOM!!)
  PAW_PBE S 06Sep2000                   :
 energy of atom  6       EATOM= -276.8230
 kinetic energy error for atom=    0.0016 (will be added to EATOM!!)
 
 
 POSCAR: C24 H24 Fe N6 S6, 2(Br4 Fe)             
  positions in direct lattice
  velocities in cartesian coordinates
 exchange correlation table for  LEXCH =       43
   RHO(1)=    0.500       N(1)  =     2000
   RHO(2)=  100.500       N(2)  =     4000
 


--------------------------------------------------------------------------------------------------------


 ion  position               nearest neighbor table
   1  0.123  0.387  0.450-  61 1.10  73 1.10  49 1.10  13 1.48
   2  0.877  0.613  0.550-  62 1.10  74 1.10  50 1.10  14 1.48
   3  0.040  0.123  0.450-  63 1.10  75 1.10  51 1.10  15 1.48
   4  0.960  0.877  0.550-  64 1.10  76 1.10  52 1.10  16 1.48
   5  0.387  0.040  0.450-  65 1.10  77 1.10  53 1.10  17 1.48
   6  0.613  0.960  0.550-  66 1.10  78 1.10  54 1.10  18 1.48
   7  0.113  0.377  0.050-  67 1.10  79 1.10  55 1.10  19 1.48
   8  0.887  0.623  0.950-  68 1.10  80 1.10  56 1.10  20 1.48
   9  0.377  0.460  0.050-  69 1.10  81 1.10  57 1.10  21 1.48
  10  0.623  0.540  0.950-  70 1.10  82 1.10  58 1.10  22 1.48
  11  0.460  0.113  0.050-  71 1.10  83 1.10  59 1.10  23 1.48
  12  0.540  0.887  0.950-  72 1.10  84 1.10  60 1.10  24 1.48
  13  0.254  0.353  0.393- 119 1.33   1 1.48 131 1.72
  14  0.746  0.647  0.607- 120 1.33   2 1.48 132 1.72
  15  1.000  0.254  0.393- 121 1.33   3 1.48 133 1.72
  16  0.000  0.746  0.607- 122 1.33   4 1.48 134 1.72
  17  0.353  1.000  0.393- 123 1.33   5 1.48 135 1.72
  18  0.647  0.000  0.607- 124 1.33   6 1.48 136 1.72
  19  0.147  0.246  0.107- 125 1.33   7 1.48 137 1.72
  20  0.853  0.754  0.893- 126 1.33   8 1.48 138 1.72
  21  0.246  0.500  0.107- 127 1.33   9 1.48 139 1.72
  22  0.754  0.500  0.893- 128 1.33  10 1.48 140 1.72
  23  0.500  0.147  0.107- 129 1.33  11 1.48 141 1.72
  24  0.500  0.853  0.893- 130 1.33  12 1.48 142 1.72
  25  0.434  0.280  0.288-  37 1.37 119 1.39  35 1.44
  26  0.566  0.720  0.712-  38 1.37 120 1.39  36 1.44
  27  0.998  0.434  0.288-  39 1.37 121 1.39  33 1.44
  28  0.002  0.566  0.712-  40 1.37 122 1.39  34 1.44
  29  0.280  0.998  0.288-  41 1.37 123 1.39  31 1.44
  30  0.720  0.002  0.712-  42 1.37 124 1.39  32 1.44
  31  0.220  0.066  0.212-  43 1.37 125 1.39  29 1.44
  32  0.780  0.934  0.788-  44 1.37 126 1.39  30 1.44
  33  0.066  0.502  0.212-  45 1.37 127 1.39  27 1.44
  34  0.934  0.498  0.788-  46 1.37 128 1.39  28 1.44
  35  0.502  0.220  0.212-  47 1.37 129 1.39  25 1.44
  36  0.498  0.780  0.788-  48 1.37 130 1.39  26 1.44
  37  0.477  0.319  0.332-  85 1.09  25 1.37 131 1.71
  38  0.523  0.681  0.668-  86 1.09  26 1.37 132 1.71
  39  0.872  0.477  0.332-  87 1.09  27 1.37 133 1.71
  40  0.128  0.523  0.668-  88 1.09  28 1.37 134 1.71
  41  0.319  0.872  0.332-  89 1.09  29 1.37 135 1.71
  42  0.681  0.128  0.668-  90 1.09  30 1.37 136 1.71
  43  0.181  0.023  0.168-  91 1.09  31 1.37 137 1.71
  44  0.819  0.977  0.832-  92 1.09  32 1.37 138 1.71
  45  0.023  0.628  0.168-  93 1.09  33 1.37 139 1.71
  46  0.977  0.372  0.832-  94 1.09  34 1.37 140 1.71
  47  0.628  0.181  0.168-  95 1.09  35 1.37 141 1.71
  48  0.372  0.819  0.832-  96 1.09  36 1.37 142 1.71
  49  0.056  0.462  0.409-   1 1.10
  50  0.944  0.538  0.591-   2 1.10
  51  0.073  0.056  0.409-   3 1.10
  52  0.927  0.944  0.591-   4 1.10
  53  0.462  0.073  0.409-   5 1.10
  54  0.538  0.927  0.591-   6 1.10
  55  0.038  0.444  0.091-   7 1.10
  56  0.962  0.556  0.909-   8 1.10
  57  0.444  0.427  0.091-   9 1.10
  58  0.556  0.573  0.909-  10 1.10
  59  0.427  0.038  0.091-  11 1.10
  60  0.573  0.962  0.909-  12 1.10
  61  0.113  0.420  0.508-   1 1.10
  62  0.887  0.580  0.492-   2 1.10
  63  0.960  0.113  0.508-   3 1.10
  64  0.040  0.887  0.492-   4 1.10
  65  0.420  0.960  0.508-   5 1.10
  66  0.580  0.040  0.492-   6 1.10
  67  0.080  0.387  0.992-   7 1.10
  68  0.920  0.613  0.008-   8 1.10
  69  0.387  0.540  0.992-   9 1.10
  70  0.613  0.460  0.008-  10 1.10
  71  0.540  0.080  0.992-  11 1.10
  72  0.460  0.920  0.008-  12 1.10
  73  0.099  0.305  0.481-   1 1.10
  74  0.901  0.695  0.519-   2 1.10
  75  0.115  0.099  0.481-   3 1.10
  76  0.885  0.901  0.519-   4 1.10
  77  0.305  0.115  0.481-   5 1.10
  78  0.695  0.885  0.519-   6 1.10
  79  0.195  0.401  0.019-   7 1.10
  80  0.805  0.599  0.981-   8 1.10
  81  0.401  0.385  0.019-   9 1.10
  82  0.599  0.615  0.981-  10 1.10
  83  0.385  0.195  0.019-  11 1.10
  84  0.615  0.805  0.981-  12 1.10
  85  0.570  0.314  0.317-  37 1.09
  86  0.430  0.686  0.683-  38 1.09
  87  0.798  0.570  0.317-  39 1.09
  88  0.202  0.430  0.683-  40 1.09
  89  0.314  0.798  0.317-  41 1.09
  90  0.686  0.202  0.683-  42 1.09
  91  0.186  0.930  0.183-  43 1.09
  92  0.814  0.070  0.817-  44 1.09
  93  0.930  0.702  0.183-  45 1.09
  94  0.070  0.298  0.817-  46 1.09
  95  0.702  0.186  0.183-  47 1.09
  96  0.298  0.814  0.817-  48 1.09
  97  0.081  0.748  0.328- 115 2.28
  98  0.919  0.252  0.672- 116 2.28
  99  0.843  0.081  0.328- 115 2.28
 100  0.157  0.919  0.672- 116 2.28
 101  0.748  0.843  0.328- 115 2.28
 102  0.252  0.157  0.672- 116 2.28
 103  0.752  0.419  0.172- 117 2.28
 104  0.248  0.581  0.828- 118 2.28
 105  0.419  0.657  0.172- 117 2.28
 106  0.581  0.343  0.828- 118 2.28
 107  0.657  0.752  0.172- 117 2.28
 108  0.343  0.248  0.828- 118 2.28
 109  0.960  0.960  0.121- 115 2.29
 110  0.040  0.040  0.879- 116 2.29
 111  0.540  0.540  0.379- 117 2.29
 112  0.460  0.460  0.621- 118 2.29
 113  0.250  0.250  0.250- 129 2.00 127 2.00 125 2.00 123 2.00 121 2.00 119 2.00
 114  0.750  0.750  0.750- 120 2.00 126 2.00 130 2.00 124 2.00 122 2.00 128 2.00
 115  0.907  0.907  0.280-  97 2.28 101 2.28  99 2.28 109 2.29
 116  0.093  0.093  0.720- 100 2.28 102 2.28  98 2.28 110 2.29
 117  0.593  0.593  0.220- 103 2.28 107 2.28 105 2.28 111 2.29
 118  0.407  0.407  0.780- 106 2.28 108 2.28 104 2.28 112 2.29
 119  0.308  0.300  0.322-  13 1.33  25 1.39 113 2.00
 120  0.692  0.700  0.678-  14 1.33  26 1.39 114 2.00
 121  0.070  0.308  0.322-  15 1.33  27 1.39 113 2.00
 122  0.930  0.692  0.678-  16 1.33  28 1.39 114 2.00
 123  0.300  0.070  0.322-  17 1.33  29 1.39 113 2.00
 124  0.700  0.930  0.678-  18 1.33  30 1.39 114 2.00
 125  0.200  0.192  0.178-  19 1.33  31 1.39 113 2.00
 126  0.800  0.808  0.822-  20 1.33  32 1.39 114 2.00
 127  0.192  0.430  0.178-  21 1.33  33 1.39 113 2.00
 128  0.808  0.570  0.822-  22 1.33  34 1.39 114 2.00
 129  0.430  0.200  0.178-  23 1.33  35 1.39 113 2.00
 130  0.570  0.800  0.822-  24 1.33  36 1.39 114 2.00
 131  0.356  0.382  0.419-  37 1.71  13 1.72
 132  0.644  0.618  0.581-  38 1.71  14 1.72
 133  0.843  0.356  0.419-  39 1.71  15 1.72
 134  0.157  0.644  0.581-  40 1.71  16 1.72
 135  0.382  0.843  0.419-  41 1.71  17 1.72
 136  0.618  0.157  0.581-  42 1.71  18 1.72
 137  0.118  0.144  0.081-  43 1.71  19 1.72
 138  0.882  0.856  0.919-  44 1.71  20 1.72
 139  0.144  0.657  0.081-  45 1.71  21 1.72
 140  0.856  0.343  0.919-  46 1.71  22 1.72
 141  0.657  0.118  0.081-  47 1.71  23 1.72
 142  0.343  0.882  0.919-  48 1.71  24 1.72
 
  LATTYP: Found a trigonal (rhomboedric) cell.
 ALAT       =    16.1758905650
 COS(alpha) =     0.6932323355
  
  Lattice vectors:
  
 A1 = (  -6.3351658998,  -3.6576097376, -14.4273004960)
 A2 = (   0.0000000000,   7.3152194752, -14.4273004960)
 A3 = (   6.3351658998,  -3.6576097376, -14.4273004960)


Analysis of symmetry for initial positions (statically):
=====================================================================
 Subroutine PRICEL returns:
 Original cell was already a primitive cell.
 

 Routine SETGRP: Setting up the symmetry group for a 
 trigonal (rhombohedral) supercell.


 Subroutine GETGRP returns: Found 12 space group operations
 (whereof  6 operations were pure point group operations)
 out of a pool of 12 trial point group operations.


The static configuration has the point symmetry S_6 .
 The point group associated with its full space group is D_3d.


Analysis of symmetry for dynamics (positions and initial velocities):
=====================================================================
 Subroutine PRICEL returns:
 Original cell was already a primitive cell.
 

 Routine SETGRP: Setting up the symmetry group for a 
 trigonal (rhombohedral) supercell.


 Subroutine GETGRP returns: Found 12 space group operations
 (whereof  6 operations were pure point group operations)
 out of a pool of 12 trial point group operations.


The dynamic configuration has the point symmetry S_6 .
 The point group associated with its full space group is D_3d.
 
 
 KPOINTS: Automatic generation                    

Automatic generation of k-mesh.
 generate k-points for:    1    1    1
Space group operators:
 irot       det(A)        alpha          n_x          n_y          n_z        tau_x        tau_y        tau_z
    1     1.000000     0.000001     1.000000     0.000000     0.000000     0.000000     0.000000     0.000000
    2    -1.000000     0.000001     1.000000     0.000000     0.000000     0.000000     0.000000     0.000000
    3     1.000000   120.000000     0.000000     0.000000     1.000000     0.000000     0.000000     0.000000
    4    -1.000000   120.000000     0.000000     0.000000     1.000000     0.000000     0.000000     0.000000
    5     1.000000   120.000000     0.000000    -0.000000    -1.000000     0.000000     0.000000     0.000000
    6    -1.000000   120.000000     0.000000    -0.000000    -1.000000     0.000000     0.000000     0.000000
    7     1.000000   180.000000    -0.500000     0.866025    -0.000000     0.500000     0.500000    -1.500000
    8    -1.000000   180.000000    -0.500000     0.866025    -0.000000     0.500000     0.500000    -1.500000
    9     1.000000   180.000000     0.500000     0.866025    -0.000000     0.500000     0.500000    -1.500000
   10    -1.000000   180.000000     0.500000     0.866025    -0.000000     0.500000     0.500000    -1.500000
   11     1.000000   179.999999     1.000000    -0.000000     0.000000     0.500000     0.500000    -1.500000
   12    -1.000000   179.999999     1.000000    -0.000000     0.000000     0.500000     0.500000    -1.500000
 
 Subroutine IBZKPT returns following result:
 ===========================================
 
 Found      1 irreducible k-points:
 
 Following reciprocal coordinates:
            Coordinates               Weight
  0.000000  0.000000  0.000000      1.000000
 
 Following cartesian coordinates:
            Coordinates               Weight
  0.000000  0.000000  0.000000      1.000000
 


--------------------------------------------------------------------------------------------------------




 Dimension of arrays:
   k-points           NKPTS =      1   k-points in BZ     NKDIM =      1   number of bands    NBANDS=    338
   number of dos      NEDOS =    301   number of ions     NIONS =    142
   non local maximal  LDIM  =      6   non local SUM 2l+1 LMDIM =     18
   total plane-waves  NPLWV = 466560
   max r-space proj   IRMAX =   2515   max aug-charges    IRDMAX=   8670
   dimension x,y,z NGX =    72 NGY =   72 NGZ =   90
   dimension x,y,z NGXF=   144 NGYF=  144 NGZF=  180
   support grid    NGXF=   144 NGYF=  144 NGZF=  180
   ions per type =              48  48  16   6  12  12
 NGX,Y,Z   is equivalent  to a cutoff of   9.45,  9.45,  9.25 a.u.
 NGXF,Y,Z  is equivalent  to a cutoff of  18.89, 18.89, 18.50 a.u.


 I would recommend the setting:
   dimension x,y,z NGX =    71 NGY =   71 NGZ =   90
 SYSTEM =  Cl_Substituted                          
 POSCAR =  C24 H24 Fe N6 S6, 2(Br4 Fe)             

 Startparameter for this run:
   NWRITE =      2    write-flag & timer
   PREC   = normal    normal or accurate (medium, high low for compatibility)
   ISTART =      1    job   : 0-new  1-cont  2-samecut
   ICHARG =      1    charge: 1-file 2-atom 10-const
   ISPIN  =      1    spin polarized calculation?
   LNONCOLLINEAR =      F non collinear calculations
   LSORBIT =      F    spin-orbit coupling
   INIWAV =      1    electr: 0-lowe 1-rand  2-diag
   LASPH  =      F    aspherical Exc in radial PAW
   METAGGA=      F    non-selfconsistent MetaGGA calc.

 Electronic Relaxation 1
   ENCUT  =  520.0 eV  38.22 Ry    6.18 a.u.  23.56 23.56 30.08*2*pi/ulx,y,z
   ENINI  =  520.0     initial cutoff
   ENAUG  =  644.9 eV  augmentation charge cutoff
   NELM   =    280;   NELMIN=  5; NELMDL=  0     # of ELM steps 
   EDIFF  = 0.1E-04   stopping-criterion for ELM
   LREAL  =      T    real-space projection
   NLSPLINE    = F    spline interpolate recip. space projectors
   LCOMPAT=      F    compatible to vasp.4.4
   GGA_COMPAT  = T    GGA compatible to vasp.4.4-vasp.4.6
   LMAXPAW     = -100 max onsite density
   LMAXMIX     =    2 max onsite mixed and CHGCAR
   VOSKOWN=      0    Vosko Wilk Nusair interpolation
   ROPT   =   -0.00050  -0.00050  -0.00050  -0.00050
   ROPT   =   -0.00050  -0.00050
 Ionic relaxation
   EDIFFG = -.1E-01   stopping-criterion for IOM
   NSW    =    200    number of steps for IOM
   NBLOCK =      1;   KBLOCK =    200    inner block; outer block 
   IBRION =      2    ionic relax: 0-MD 1-quasi-New 2-CG
   NFREE  =      1    steps in history (QN), initial steepest desc. (CG)
   ISIF   =      3    stress and relaxation
   IWAVPR =     11    prediction:  0-non 1-charg 2-wave 3-comb
   ISYM   =      2    0-nonsym 1-usesym 2-fastsym
   LCORR  =      T    Harris-Foulkes like correction to forces

   POTIM  = 0.1870    time-step for ionic-motion
   TEIN   =    0.0    initial temperature
   TEBEG  =    0.0;   TEEND  =   0.0 temperature during run
   SMASS  =  -3.00    Nose mass-parameter (am)
   estimated Nose-frequenzy (Omega)   =  0.10E-29 period in steps =****** mass=  -0.367E-26a.u.
   SCALEE = 1.0000    scale energy and forces
   NPACO  =    256;   APACO  = 16.0  distance and # of slots for P.C.
   PSTRESS=   -4.0 pullay stress

  Mass of Ions in am
   POMASS =  12.01  1.00 79.90 55.85 14.00 32.07
  Ionic Valenz
   ZVAL   =   4.00  1.00  7.00  8.00  5.00  6.00
  Atomic Wigner-Seitz radii
   RWIGS  =  -1.00 -1.00 -1.00 -1.00 -1.00 -1.00
  virtual crystal weights 
   VCA    =   1.00  1.00  1.00  1.00  1.00  1.00
   NELECT =     532.0000    total number of electrons
   NUPDOWN=      -1.0000    fix difference up-down

 DOS related values:
   EMIN   =  10.00;   EMAX   =-10.00  energy-range for DOS
   EFERMI =   0.00
   ISMEAR =     0;   SIGMA  =   0.25  broadening in eV -4-tet -1-fermi 0-gaus

 Electronic relaxation 2 (details)
   IALGO  =     68    algorithm
   LDIAG  =      T    sub-space diagonalisation (order eigenvalues)
   LSUBROT=      F    optimize rotation matrix (better conditioning)
   TURBO    =      0    0=normal 1=particle mesh
   IRESTART =      0    0=no restart 2=restart with 2 vectors
   NREBOOT  =      0    no. of reboots
   NMIN     =      0    reboot dimension
   EREF     =   0.00    reference energy to select bands
   IMIX   =      4    mixing-type and parameters
     AMIX     =   0.40;   BMIX     =  1.00
     AMIX_MAG =   1.60;   BMIX_MAG =  1.00
     AMIN     =   0.10
     WC   =   100.;   INIMIX=   1;  MIXPRE=   1;  MAXMIX=  40

 Intra band minimization:
   WEIMIN = 0.0010     energy-eigenvalue tresh-hold
   EBREAK =  0.74E-08  absolut break condition
   DEPER  =   0.30     relativ break condition  

   TIME   =   0.40     timestep for ELM

  volume/ion in A,a.u.               =      14.13        95.32
  Fermi-wavevector in a.u.,A,eV,Ry     =   1.051836  1.987682 15.052936  1.106360
  Thomas-Fermi vector in A             =   2.186895
 
 Write flags
   LWAVE  =      T    write WAVECAR
   LCHARG =      T    write CHGCAR
   LVTOT  =      F    write LOCPOT, total local potential
   LVHAR  =      F    write LOCPOT, Hartree potential only
   LELF   =      F    write electronic localiz. function (ELF)
   LORBIT =      0    0 simple, 1 ext, 2 COOP (PROOUT)


 Dipole corrections
   LMONO  =      F    monopole corrections only (constant potential shift)
   LDIPOL =      F    correct potential (dipole corrections)
   IDIPOL =      0    1-x, 2-y, 3-z, 4-all directions 
   EPSILON=  1.0000000 bulk dielectric constant

 Exchange correlation treatment:
   GGA     =    MK    GGA type
   LEXCH   =    43    internal setting for exchange type
   VOSKOWN=      0    Vosko Wilk Nusair interpolation
   LHFCALC =     F    Hartree Fock is set to
   LHFONE  =     F    Hartree Fock one center treatment
   AEXX    =    0.0000 exact exchange contribution

 vdW DFT:
   LUSE_VDW   =     T    switch on vdW DFT
   Zab_VDW    =-.8491    correlation parameter
   PARAM1     =0.1234
   PARAM2     =1.0000
   PARAM3     =0.0000

 Linear response parameters
   LEPSILON=     F    determine dielectric tensor
   LRPA    =     F    only Hartree local field effects (RPA)
   LNABLA  =     F    use nabla operator in PAW spheres
   LVEL    =     F    velocity operator in full k-point grid
   LINTERFAST=   F  fast interpolation
   KINTER  =     0    interpolate to denser k-point grid
   CSHIFT  =0.1000    complex shift for real part using Kramers Kronig
   OMEGAMAX=  -1.0    maximum frequency
   DEG_THRESHOLD= 0.2000000E-02 threshold for treating states as degnerate
   RTIME   =    0.100 relaxation time in fs

 Orbital magnetization related:
   ORBITALMAG=     F  switch on orbital magnetization
   LCHIMAG   =     F  perturbation theory with respect to B field
   DQ        =  0.001000  dq finite difference perturbation B field



--------------------------------------------------------------------------------------------------------


 conjugate gradient relaxation of ions
 charge density and potential will be updated during run
 non-spin polarized calculation
 RMM-DIIS sequential band-by-band and
  variant of blocked Davidson during initial phase
 perform sub-space diagonalisation
    before iterative eigenvector-optimisation
 modified Broyden-mixing scheme, WC =      100.0
 initial mixing is a Kerker type mixing with AMIX =  0.4000 and BMIX =      1.0000
 Hartree-type preconditioning will be used
 using additional bands           72
 real space projection scheme for non local part
 use partial core corrections
 calculate Harris-corrections to forces 
   (improved forces if not selfconsistent)
 use gradient corrections 
 use of overlap-Matrix (Vanderbilt PP)
 Gauss-broadening in eV      SIGMA  =   0.25


--------------------------------------------------------------------------------------------------------


  energy-cutoff  :      520.00
  volume of cell :     2005.82
      direct lattice vectors                 reciprocal lattice vectors
    -6.335165900 10.972829213 -0.000000000     0.000000000  0.091134199 -0.023104345
   -12.670331800  0.000000000 -0.000000000    -0.078924531 -0.045567099 -0.023104345
    -6.335165900  3.657609738 14.427300496    -0.000000000  0.000000000  0.069313036

  length of vectors
    12.670331800 12.670331800 16.175890565     0.094017302  0.094017302  0.069313036


 
 old parameters found on file WAVECAR:
  energy-cutoff  :      520.00
  volume of cell :     2002.77
      direct lattice vectors                 reciprocal lattice vectors
    -6.332286680 10.967842258 -0.000000000     0.000000000  0.091175637 -0.023118493
   -12.664573361  0.000000000 -0.000000000    -0.078960417 -0.045587818 -0.023118493
    -6.332286680  3.655947419 14.418471331    -0.000000000  0.000000000  0.069355480

  length of vectors

 
 k-points in units of 2pi/SCALE and weight: Automatic generation                    
   0.00000000  0.00000000  0.00000000       1.000
 
 k-points in reciprocal lattice and weights: Automatic generation                    
   0.00000000  0.00000000  0.00000000       1.000
 
 position of ions in fractional coordinates (direct lattice) 
   0.12323132  0.38656238  0.45032807
   0.87676868  0.61343763  0.54967192
   0.03987823  0.12323132  0.45032807
   0.96012177  0.87676868  0.54967192
   0.38656237  0.03987824  0.45032807
   0.61343762  0.96012177  0.54967192
   0.11343761  0.37676868  0.04967194
   0.88656237  0.62323132  0.95032808
   0.37676867  0.46012176  0.04967194
   0.62323132  0.53987823  0.95032808
   0.46012176  0.11343762  0.04967194
   0.53987823  0.88656238  0.95032808
   0.25440977  0.35348052  0.39259336
   0.74559023  0.64651951  0.60740659
   0.99951636  0.25440979  0.39259336
   0.00048367  0.74559024  0.60740659
   0.35348051  0.99951634  0.39259336
   0.64651950  0.00048366  0.60740659
   0.14651948  0.24559023  0.10740665
   0.85348050  0.75440978  0.89259339
   0.24559021  0.50048364  0.10740665
   0.75440976  0.49951633  0.89259339
   0.50048366  0.14651949  0.10740665
   0.49951635  0.85348051  0.89259339
   0.43444197  0.27989193  0.28795089
   0.56555801  0.72010808  0.71204914
   0.99771523  0.43444198  0.28795089
   0.00228478  0.56555802  0.71204914
   0.27989191  0.99771521  0.28795089
   0.72010807  0.00228476  0.71204914
   0.22010808  0.06555804  0.21204909
   0.77989192  0.93444199  0.78795086
   0.06555803  0.50228477  0.21204909
   0.93444198  0.49771522  0.78795086
   0.50228479  0.22010810  0.21204909
   0.49771524  0.77989193  0.78795086
   0.47659780  0.31854752  0.33240853
   0.52340217  0.68145249  0.66759150
   0.87244616  0.47659782  0.33240853
   0.12755385  0.52340219  0.66759150
   0.31854750  0.87244614  0.33240853
   0.68145248  0.12755383  0.66759150
   0.18145249  0.02340220  0.16759146
   0.81854751  0.97659783  0.83240850
   0.02340219  0.62755385  0.16759146
   0.97659781  0.37244615  0.83240850
   0.62755387  0.18145250  0.16759146
   0.37244617  0.81854752  0.83240850
   0.05584753  0.46174105  0.40924811
   0.94415247  0.53825895  0.59075188
   0.07316331  0.05584754  0.40924811
   0.92683670  0.94415247  0.59075188
   0.46174106  0.07316331  0.40924811
   0.53825896  0.92683669  0.59075188
   0.03825895  0.44415246  0.09075190
   0.96174105  0.55584753  0.90924812
   0.44415246  0.42683669  0.09075190
   0.55584753  0.57316330  0.90924812
   0.42683669  0.03825894  0.09075190
   0.57316331  0.96174104  0.90924812
   0.11283926  0.41964702  0.50765869
   0.88716074  0.58035301  0.49234126
   0.95985503  0.11283928  0.50765869
   0.04014497  0.88716075  0.49234126
   0.41964700  0.95985505  0.50765869
   0.58035299  0.04014498  0.49234126
   0.08035298  0.38716074  0.99234129
   0.91964699  0.61283926  0.00765874
   0.38716073  0.54014497  0.99234129
   0.61283925  0.45985503  0.00765874
   0.54014496  0.08035300  0.99234129
   0.45985502  0.91964701  0.00765874
   0.09863196  0.30490880  0.48124418
   0.90136803  0.69509122  0.51875580
   0.11521507  0.09863197  0.48124418
   0.88478495  0.90136805  0.51875580
   0.30490879  0.11521506  0.48124418
   0.69509121  0.88478494  0.51875580
   0.19509120  0.40136804  0.01875583
   0.80490878  0.59863197  0.98124420
   0.40136803  0.38478493  0.01875583
   0.59863195  0.61521505  0.98124420
   0.38478494  0.19509121  0.01875583
   0.61521506  0.80490879  0.98124420
   0.57015091  0.31427034  0.31710918
   0.42984910  0.68572969  0.68289078
   0.79846958  0.57015092  0.31710918
   0.20153045  0.42984910  0.68289078
   0.31427033  0.79846956  0.31710918
   0.68572967  0.20153044  0.68289078
   0.18572965  0.92984908  0.18289083
   0.81427031  0.07015090  0.81710923
   0.92984908  0.70153042  0.18289083
   0.07015089  0.29846954  0.81710923
   0.70153044  0.18572967  0.18289083
   0.29846956  0.81427033  0.81710923
   0.08091251  0.74753310  0.32813853
   0.91908747  0.25246687  0.67186153
   0.84341587  0.08091251  0.32813853
   0.15658413  0.91908747  0.67186153
   0.74753311  0.84341585  0.32813853
   0.25246689  0.15658411  0.67186153
   0.75246690  0.41908749  0.17186148
   0.24753312  0.58091253  0.82813849
   0.41908748  0.65658413  0.17186148
   0.58091252  0.34341586  0.82813849
   0.65658415  0.75246689  0.17186148
   0.34341588  0.24753311  0.82813849
   0.95978164  0.95978162  0.12065511
   0.04021840  0.04021838  0.87934484
   0.54021838  0.54021836  0.37934490
   0.45978163  0.45978161  0.62065514
   0.25000001  0.24999999  0.24999999
   0.74999998  0.75000002  0.75000000
   0.90677624  0.90677622  0.27967132
   0.09322380  0.09322378  0.72032864
   0.59322378  0.59322376  0.22032869
   0.40677622  0.40677620  0.77967137
   0.30799791  0.30000128  0.32171689
   0.69200211  0.69999875  0.67828309
   0.07028393  0.30799790  0.32171689
   0.92971608  0.69200209  0.67828309
   0.30000126  0.07028393  0.32171689
   0.69999873  0.92971607  0.67828309
   0.19999872  0.19200208  0.17828312
   0.80000125  0.80799789  0.82171691
   0.19200210  0.42971606  0.17828312
   0.80799791  0.57028392  0.82171691
   0.42971607  0.19999874  0.17828312
   0.57028393  0.80000127  0.82171691
   0.35596416  0.38181129  0.41880108
   0.64403581  0.61818867  0.58119897
   0.84342345  0.35596417  0.41880108
   0.15657652  0.64403582  0.58119897
   0.38181131  0.84342346  0.41880108
   0.61818869  0.15657653  0.58119897
   0.11818871  0.14403584  0.08119893
   0.88181133  0.85596419  0.91880102
   0.14403583  0.65657655  0.08119893
   0.85596418  0.34342348  0.91880102
   0.65657654  0.11818869  0.08119893
   0.34342347  0.88181131  0.91880102
 
 position of ions in cartesian coordinates  (Angst):
  -8.53146754  2.99932057  6.49701835
 -16.80919616 11.63111834  7.93028193
  -4.66692001  2.08470137  6.49701835
 -20.67374360 12.54573753  7.93028193
  -5.80711029  5.88880723  6.49701835
 -19.53355331  8.74163161  7.93028193
  -5.80711023  1.42641214  0.71663202
 -19.53355336 13.20402670 13.71066882
  -8.53146745  4.31589887  0.71663202
 -16.80919619 10.31454004 13.71066882
  -4.66692000  5.23051806  0.71663202
 -20.67374370  9.39992084 13.71066882
  -8.57758765  4.22754826  5.66406241
 -16.76307596 10.40289050  8.76323744
 -12.04270243 12.40347557  5.66406241
 -13.29796148  2.22696355  8.76323744
 -17.39070542  5.31463457  5.66406241
  -7.94995792  9.31580427  8.76323744
  -4.72037378  2.00058480  1.54958800
 -20.62028997 12.62985405 12.87771309
  -8.57758745  3.08767102  1.54958800
 -16.76307585 11.54276774 12.87771309
  -5.70753644  5.88457329  1.54958800
 -19.63312738  8.74586583 12.87771309
  -8.12280216  5.82026948  4.15435396
 -17.21786157  8.81016933 10.27294687
 -13.64943220 12.00097083  4.15435396
 -11.69123168  2.62946834 10.27294687
 -16.23876113  4.12441810  4.15435396
  -9.10190212 10.50602068 10.27294687
  -3.56842949  3.19080120  3.05929597
 -21.77223416 11.43963757 11.36800387
  -8.12280189  1.49494986  3.05929597
 -17.21786138 13.13548896 11.36800387
  -7.31426629  6.28707808  3.05929597
 -18.02639764  8.34336109 11.36800387
  -9.16129202  6.44544697  4.79575768
 -16.17937163  8.18499181  9.63154313
 -13.67160683 10.78902337  4.79575768
 -11.66905709  3.84141579  9.63154313
 -15.17809651  4.71118801  4.79575768
 -10.16256676  9.91925081  9.63154313
  -2.50776498  2.60403133  2.41789229
 -22.83289875 12.02640748 12.00940761
  -9.16129186  0.86977233  2.41789229
 -16.17937139 13.76066644 12.00940761
  -7.33644095  7.49902553  2.41789229
 -18.00422293  7.13141364 12.00940761
  -8.79687030  2.10967532  5.90434540
 -16.54379313 12.52076361  8.52295488
  -3.76376318  2.29967837  5.90434540
 -21.57690047 12.33076063  8.52295488
  -6.44486422  6.56347563  5.90434540
 -18.89579940  8.06696346  8.52295488
  -6.44486423  0.75174398  1.30930497
 -18.89579948 13.87869511 13.11799587
  -8.79687032  5.20554413  1.30930497
 -16.54379321  9.42489480 13.11799587
  -3.76376306  5.01554116  1.30930497
 -21.57690041  9.61489785 13.11799587
  -9.24802448  3.09498334  7.32414453
 -16.09263925 11.53545547  7.10315532
 -10.72665397 12.38914271  7.32414453
 -14.61400970  2.24129608  7.10315532
 -18.03631734  6.46153228  7.32414453
  -7.30434634  8.16890648  7.10315532
 -11.70115126  4.51129675 14.31680600
 -13.63951239 10.11914201  0.11049493
 -15.58319020  7.87784573 14.31680600
  -9.75747351  6.75259308  0.11049493
 -10.72665383  9.55651555 14.31680600
 -14.61400989  5.07392323  0.11049493
  -7.53690719  2.84247503  6.94305444
 -17.80375644 11.78796377  7.48424585
  -5.02836810  3.02443866  6.94305444
 -20.31229572 11.60600038  7.48424585
  -6.44022252  5.10591547  6.94305444
 -18.90044092  9.52452337  7.48424585
  -6.44022261  2.20930390  0.27059596
 -18.90044110 12.42113495 14.15670489
  -7.53690704  4.47274429  0.27059596
 -17.80375637 10.15769451 14.15670489
  -5.02836803  4.29078090  0.27059596
 -20.31229574 10.33965813 14.15670489
  -9.60284942  7.41603021  4.57502943
 -15.73781438  7.21440871  9.85227052
 -14.29137776  9.92133190  4.57502943
 -11.04928597  4.70910721  9.85227052
 -14.11676818  4.60829625  4.57502943
 -11.22389512 10.02214251  9.85227052
 -14.11676834  2.70692304  2.63862098
 -11.22389519 11.92351572 11.78868043
 -15.93801515 10.87201844  2.63862098
  -9.40264824  3.75842047 11.78868043
  -7.95621199  8.36671694  2.63862098
 -17.38445192  6.26372217 11.78868043
 -12.06289852  2.08804180  4.73415311
 -13.27776486 12.54239710  9.69314813
  -8.44717984 10.45486096  4.73415311
 -16.89348394  4.17557821  9.69314813
 -17.50091694  9.40275583  4.73415311
  -7.83974650  5.22768329  9.69314813
 -11.16575119  8.88529303  2.47949729
 -14.17491256  5.74514609 11.94780283
 -12.06289849  5.22717762  2.47949729
 -13.27776482  9.40326128 11.94780283
 -14.78234562  7.83318795  2.47949729
 -10.55831792  6.79725122 11.94780283
 -19.00549764 10.97282932  1.74072748
  -6.33516584  3.65760985 12.68657227
 -12.67033174  7.31521958  5.47292289
 -12.67033174  7.31521958  8.95437826
  -6.33516584  3.65760985  3.60682502
 -19.00549783 10.97282899 10.82047537
 -19.00549764 10.97282932  4.03490218
  -6.33516584  3.65760985 10.39239778
 -12.67033174  7.31521958  3.17874818
 -12.67033174  7.31521958 11.24855318
  -7.79046347  4.55632332  4.64150625
 -17.55020046 10.07411582  9.78579403
  -6.38582577  1.94792842  4.64150625
 -18.95483764 12.68251059  9.78579403
  -4.82920830  4.46857742  4.64150625
 -20.51145512 10.16186134  9.78579403
  -4.82920832  2.84664187  2.57214416
 -20.51145495 11.78379689 11.85515671
  -7.79046342  2.75889634  2.57214416
 -17.55020023 11.87154280 11.85515671
  -6.38582609  5.36729111  2.57214416
 -18.95483776  9.26314789 11.85515671
  -9.74594206  5.43774484  6.04216900
 -15.59472122  9.19269400  8.38513214
 -12.50658594 10.78655239  6.04216900
 -12.83407772  3.84388646  8.38513214
 -15.75846740  5.72136121  6.04216900
  -9.58219645  8.90907796  8.38513214
  -3.08813560  1.59385849  1.17148137
 -22.25252825 13.03658068 13.25581839
  -9.74594224  1.87747453  1.17148137
 -15.59472141 12.75296431 13.25581839
  -6.17141985  7.50149620  1.17148137
 -19.16924344  7.12894265 13.25581839
 


--------------------------------------------------------------------------------------------------------


 k-point  1 :   0.0000 0.0000 0.0000  plane waves:   53987

 maximum and minimum number of plane-waves per node :      1690     1684

 maximum number of plane-waves:     53987
 maximum index in each direction: 
   IXMAX=   23   IYMAX=   23   IZMAX=   30
   IXMIN=  -23   IYMIN=  -23   IZMIN=  -30

 WARNING: aliasing errors must be expected set NGX to  94 to avoid them
 WARNING: aliasing errors must be expected set NGY to  94 to avoid them
 WARNING: aliasing errors must be expected set NGZ to 122 to avoid them
 aliasing errors are usually negligible using standard VASP settings
 and one can safely disregard these warnings

 real space projection operators:
  total allocation   :      12691.16 KBytes
  max/ min on nodes  :        548.00        315.02


 parallel 3D FFT for wavefunctions:
    minimum data exchange during FFTs selected (reduces bandwidth)
 parallel 3D FFT for charge:
    minimum data exchange during FFTs selected (reduces bandwidth)


 total amount of memory used by VASP on root node    63286. kBytes
========================================================================

   base      :      30000. kBytes
   nonlr-proj:       6684. kBytes
   fftplans  :       4902. kBytes
   grid      :      12289. kBytes
   one-center:         77. kBytes
   wavefun   :       9334. kBytes
 
     INWAV:  cpu time    0.89: real time    0.94
 Broyden mixing: mesh for mixing (old mesh)
   NGX = 47   NGY = 47   NGZ = 61
  (NGX  =144   NGY  =144   NGZ  =180)
  gives a total of 134749 points

 initial charge density was supplied:
 number of electron     531.9999965 magnetization 
 keeping initial charge density in first step


--------------------------------------------------------------------------------------------------------


 Maximum index for non-local projection operator          284
 Maximum index for augmentation-charges          573 (set IRDMAX)


--------------------------------------------------------------------------------------------------------


 First call to EWALD:  gamma=   0.141
 Maximum number of real-space cells 3x 3x 2
 Maximum number of reciprocal cells 3x 3x 3

 FEWALD executed in parallel
    FEWALD:  cpu time    0.01: real time    0.01


----------------------------------------- Iteration    1(   1)  ---------------------------------------


vdW kernel read from vdw_kernel.bindat
  0.0000  0.2424  0.5071  0.7962  1.1119  1.4567  1.8333  2.2446  2.6937  3.1842
  3.7199  4.3049  4.9438  5.6415  6.4036  7.2358  8.1446  9.1372 10.2212 11.4050
 12.6979 14.1099 15.6519 17.3360 19.1751 21.1837 23.3773 25.7729 28.3892 31.2465
 34.3669 37.7748 41.4965 45.5611 50.0000
 
    POTLOK:  cpu time    4.58: real time    4.74
    SETDIJ:  cpu time    0.01: real time    0.01
     EDDAV:  cpu time    2.70: real time    2.71
       DOS:  cpu time    0.00: real time    0.00
    CHARGE:  cpu time    0.15: real time    0.15
    MIXING:  cpu time    0.00: real time    0.00
    --------------------------------------------
      LOOP:  cpu time    7.46: real time    7.62

 eigenvalue-minimisations  :   902
 total energy-change (2. order) :-0.7088781E+03  (-0.1551204E-01)
 number of electron     531.9999964 magnetization 
 augmentation part        1.1086229 magnetization 

 Broyden mixing:
  rms(total) = 0.18162E+00    rms(broyden)= 0.18153E+00
  rms(prec ) = 0.20935E+00
  weight for this iteration     100.00

 Free energy of the ion-electron system (eV)
  ---------------------------------------------------
  alpha Z        PSCENC =       855.26730748
  Ewald energy   TEWEN  =    -10164.08185497
  -Hartree energ DENC   =    -13172.11856077
  -exchange      EXHF   =         0.00000000
  -V(xc)+E(xc)   XCENC  =      1361.81271012
  PAW double counting   =     47185.10935748   -47111.79250707
  entropy T*S    EENTRO =        -0.99034035
  eigenvalues    EBANDS =     -3399.59321475
  atomic energy  EATOM  =     23737.50903913
  ---------------------------------------------------
  free energy    TOTEN  =      -708.87806370 eV

  energy without entropy =     -707.88772335  energy(sigma->0) =     -708.38289352


--------------------------------------------------------------------------------------------------------




----------------------------------------- Iteration    1(   2)  ---------------------------------------


    POTLOK:  cpu time    4.13: real time    4.13
    SETDIJ:  cpu time    0.01: real time    0.01
    EDDIAG:  cpu time    0.34: real time    0.33
  RMM-DIIS:  cpu time    1.38: real time    1.39
    ORTHCH:  cpu time    0.08: real time    0.08
       DOS:  cpu time    0.00: real time    0.00
    CHARGE:  cpu time    0.15: real time    0.15
    MIXING:  cpu time    0.00: real time    0.00
    --------------------------------------------
      LOOP:  cpu time    6.09: real time    6.64

 eigenvalue-minimisations  :   697
 total energy-change (2. order) :-0.6804338E-01  (-0.4737787E-01)
 number of electron     531.9999996 magnetization 
 augmentation part        0.6921834 magnetization 

 Broyden mixing:
  rms(total) = 0.31301E+01    rms(broyden)= 0.31298E+01
  rms(prec ) = 0.41344E+01
  weight for this iteration     100.00

 eigenvalues of (default mixing * dielectric matrix)
  average eigenvalue GAMMA=   0.0392
  0.0392

 Free energy of the ion-electron system (eV)
  ---------------------------------------------------
  alpha Z        PSCENC =       855.26730748
  Ewald energy   TEWEN  =    -10164.08185497
  -Hartree energ DENC   =    -13172.70095130
  -exchange      EXHF   =         0.00000000
  -V(xc)+E(xc)   XCENC  =      1361.87907835
  PAW double counting   =     47193.73176167   -47121.92351054
  entropy T*S    EENTRO =        -2.24772779
  eigenvalues    EBANDS =     -3396.37924911
  atomic energy  EATOM  =     23737.50903913
  ---------------------------------------------------
  free energy    TOTEN  =      -708.94610708 eV

  energy without entropy =     -706.69837929  energy(sigma->0) =     -707.82224318


--------------------------------------------------------------------------------------------------------




----------------------------------------- Iteration    1(   3)  ---------------------------------------


    POTLOK:  cpu time    4.10: real time    4.11
    SETDIJ:  cpu time    0.01: real time    0.01
    EDDIAG:  cpu time    0.33: real time    0.33
  RMM-DIIS:  cpu time    1.35: real time    1.35
    ORTHCH:  cpu time    0.08: real time    0.08
       DOS:  cpu time    0.00: real time    0.00
    CHARGE:  cpu time    0.15: real time    0.15
    MIXING:  cpu time    0.00: real time    0.00
    --------------------------------------------
      LOOP:  cpu time    6.04: real time    6.04

 eigenvalue-minimisations  :   680
 total energy-change (2. order) : 0.1153113E+01  (-0.3170345E-01)
 number of electron     531.9999965 magnetization 
 augmentation part        1.5139748 magnetization 

 Broyden mixing:
  rms(total) = 0.15813E+00    rms(broyden)= 0.15506E+00
  rms(prec ) = 0.19384E+00
  weight for this iteration     100.00

 eigenvalues of (default mixing * dielectric matrix)
  average eigenvalue GAMMA=   0.2717
  0.5074  0.0361

 Free energy of the ion-electron system (eV)
  ---------------------------------------------------
  alpha Z        PSCENC =       855.26730748
  Ewald energy   TEWEN  =    -10164.08185497
  -Hartree energ DENC   =    -13169.68682575
  -exchange      EXHF   =         0.00000000
  -V(xc)+E(xc)   XCENC  =      1361.90698683
  PAW double counting   =     47193.27033871   -47120.32289102
  entropy T*S    EENTRO =        -1.06292408
  eigenvalues    EBANDS =     -3400.59217038
  atomic energy  EATOM  =     23737.50903913
  ---------------------------------------------------
  free energy    TOTEN  =      -707.79299406 eV

  energy without entropy =     -706.73006998  energy(sigma->0) =     -707.26153202


--------------------------------------------------------------------------------------------------------




----------------------------------------- Iteration    1(   4)  ---------------------------------------


    POTLOK:  cpu time    4.11: real time    4.11
    SETDIJ:  cpu time    0.02: real time    0.01
    EDDIAG:  cpu time    0.33: real time    0.33
  RMM-DIIS:  cpu time    1.35: real time    1.35
    ORTHCH:  cpu time    0.08: real time    0.08
       DOS:  cpu time    0.00: real time    0.00
    CHARGE:  cpu time    0.15: real time    0.15
    MIXING:  cpu time    0.00: real time    0.00
    --------------------------------------------
      LOOP:  cpu time    6.04: real time    6.05

 eigenvalue-minimisations  :   681
 total energy-change (2. order) : 0.3056696E+00  (-0.1808901E-01)
 number of electron     531.9999965 magnetization 
 augmentation part        1.0384428 magnetization 

 Broyden mixing:
  rms(total) = 0.91891E-01    rms(broyden)= 0.91829E-01
  rms(prec ) = 0.10303E+00
  weight for this iteration     100.00

 eigenvalues of (default mixing * dielectric matrix)
  average eigenvalue GAMMA=   0.3535
  0.6980  0.0362  0.3264

 Free energy of the ion-electron system (eV)
  ---------------------------------------------------
  alpha Z        PSCENC =       855.26730748
  Ewald energy   TEWEN  =    -10164.08185497
  -Hartree energ DENC   =    -13174.06335744
  -exchange      EXHF   =         0.00000000
  -V(xc)+E(xc)   XCENC  =      1361.96957379
  PAW double counting   =     47202.74597042   -47131.51547731
  entropy T*S    EENTRO =        -1.28080742
  eigenvalues    EBANDS =     -3394.03771815
  atomic energy  EATOM  =     23737.50903913
  ---------------------------------------------------
  free energy    TOTEN  =      -707.48732447 eV

  energy without entropy =     -706.20651706  energy(sigma->0) =     -706.84692076


--------------------------------------------------------------------------------------------------------




----------------------------------------- Iteration    1(   5)  ---------------------------------------


    POTLOK:  cpu time    4.11: real time    4.11
    SETDIJ:  cpu time    0.01: real time    0.01
    EDDIAG:  cpu time    0.34: real time    0.33
  RMM-DIIS:  cpu time    1.46: real time    1.46
    ORTHCH:  cpu time    0.08: real time    0.08
       DOS:  cpu time    0.00: real time    0.00
    CHARGE:  cpu time    0.15: real time    0.15
    MIXING:  cpu time    0.00: real time    0.01
    --------------------------------------------
      LOOP:  cpu time    6.15: real time    6.23

 eigenvalue-minimisations  :   738
 total energy-change (2. order) : 0.6319964E-02  (-0.1082150E-02)
 number of electron     531.9999965 magnetization 
 augmentation part        1.2076205 magnetization 

 Broyden mixing:
  rms(total) = 0.43406E-01    rms(broyden)= 0.43392E-01
  rms(prec ) = 0.44798E-01
  weight for this iteration     100.00

 eigenvalues of (default mixing * dielectric matrix)
  average eigenvalue GAMMA=   0.4182
  0.6707  0.6707  0.0362  0.2951

 Free energy of the ion-electron system (eV)
  ---------------------------------------------------
  alpha Z        PSCENC =       855.26730748
  Ewald energy   TEWEN  =    -10164.08185497
  -Hartree energ DENC   =    -13172.17035244
  -exchange      EXHF   =         0.00000000
  -V(xc)+E(xc)   XCENC  =      1361.89735414
  PAW double counting   =     47199.08981729   -47127.37887727
  entropy T*S    EENTRO =        -1.24204467
  eigenvalues    EBANDS =     -3396.37139319
  atomic energy  EATOM  =     23737.50903913
  ---------------------------------------------------
  free energy    TOTEN  =      -707.48100451 eV

  energy without entropy =     -706.23895984  energy(sigma->0) =     -706.85998217


--------------------------------------------------------------------------------------------------------




----------------------------------------- Iteration    1(   6)  ---------------------------------------


    POTLOK:  cpu time    4.11: real time    4.11
    SETDIJ:  cpu time    0.01: real time    0.01
    EDDIAG:  cpu time    0.33: real time    0.33
  RMM-DIIS:  cpu time    1.54: real time    1.54
    ORTHCH:  cpu time    0.08: real time    0.08
       DOS:  cpu time    0.00: real time    0.00
    CHARGE:  cpu time    0.15: real time    0.15
    MIXING:  cpu time    0.00: real time    0.00
    --------------------------------------------
      LOOP:  cpu time    6.23: real time    6.24

 eigenvalue-minimisations  :   779
 total energy-change (2. order) :-0.2702990E-03  (-0.1391512E-03)
 number of electron     531.9999965 magnetization 
 augmentation part        1.1968778 magnetization 

 Broyden mixing:
  rms(total) = 0.37540E-01    rms(broyden)= 0.37540E-01
  rms(prec ) = 0.38374E-01
  weight for this iteration     100.00

 eigenvalues of (default mixing * dielectric matrix)
  average eigenvalue GAMMA=   0.4507
  0.7591  0.7591  0.0362  0.3217  0.3775

 Free energy of the ion-electron system (eV)
  ---------------------------------------------------
  alpha Z        PSCENC =       855.26730748
  Ewald energy   TEWEN  =    -10164.08185497
  -Hartree energ DENC   =    -13172.15548241
  -exchange      EXHF   =         0.00000000
  -V(xc)+E(xc)   XCENC  =      1361.88105172
  PAW double counting   =     47197.47213048   -47125.72607780
  entropy T*S    EENTRO =        -1.24955996
  eigenvalues    EBANDS =     -3396.39782846
  atomic energy  EATOM  =     23737.50903913
  ---------------------------------------------------
  free energy    TOTEN  =      -707.48127481 eV

  energy without entropy =     -706.23171485  energy(sigma->0) =     -706.85649483


--------------------------------------------------------------------------------------------------------




----------------------------------------- Iteration    1(   7)  ---------------------------------------


    POTLOK:  cpu time    4.10: real time    4.10
    SETDIJ:  cpu time    0.02: real time    0.01
    EDDIAG:  cpu time    0.33: real time    0.33
  RMM-DIIS:  cpu time    1.11: real time    1.11
    ORTHCH:  cpu time    0.08: real time    0.08
       DOS:  cpu time    0.00: real time    0.00
    CHARGE:  cpu time    0.15: real time    0.15
    MIXING:  cpu time    0.00: real time    0.00
    --------------------------------------------
      LOOP:  cpu time    5.79: real time    5.80

 eigenvalue-minimisations  :   547
 total energy-change (2. order) :-0.1445584E-03  (-0.1485910E-04)
 number of electron     531.9999966 magnetization 
 augmentation part        1.1997797 magnetization 

 Broyden mixing:
  rms(total) = 0.29113E-01    rms(broyden)= 0.29112E-01
  rms(prec ) = 0.30874E-01
  weight for this iteration     100.00

 eigenvalues of (default mixing * dielectric matrix)
  average eigenvalue GAMMA=   0.6058
  1.0838  1.0838  0.0362  0.3004  0.5653  0.5653

 Free energy of the ion-electron system (eV)
  ---------------------------------------------------
  alpha Z        PSCENC =       855.26730748
  Ewald energy   TEWEN  =    -10164.08185497
  -Hartree energ DENC   =    -13172.10923345
  -exchange      EXHF   =         0.00000000
  -V(xc)+E(xc)   XCENC  =      1361.86024832
  PAW double counting   =     47194.02913155   -47122.20867073
  entropy T*S    EENTRO =        -1.25347842
  eigenvalues    EBANDS =     -3396.49390826
  atomic energy  EATOM  =     23737.50903913
  ---------------------------------------------------
  free energy    TOTEN  =      -707.48141936 eV

  energy without entropy =     -706.22794094  energy(sigma->0) =     -706.85468015


--------------------------------------------------------------------------------------------------------




----------------------------------------- Iteration    1(   8)  ---------------------------------------


    POTLOK:  cpu time    4.10: real time    4.11
    SETDIJ:  cpu time    0.01: real time    0.01
    EDDIAG:  cpu time    0.33: real time    0.33
  RMM-DIIS:  cpu time    1.40: real time    1.40
    ORTHCH:  cpu time    0.08: real time    0.08
       DOS:  cpu time    0.00: real time    0.00
    CHARGE:  cpu time    0.15: real time    0.15
    MIXING:  cpu time    0.00: real time    0.00
    --------------------------------------------
      LOOP:  cpu time    6.08: real time    6.32

 eigenvalue-minimisations  :   704
 total energy-change (2. order) :-0.2671020E-03  (-0.5347914E-04)
 number of electron     531.9999966 magnetization 
 augmentation part        1.1861567 magnetization 

 Broyden mixing:
  rms(total) = 0.19847E-01    rms(broyden)= 0.19846E-01
  rms(prec ) = 0.26094E-01
  weight for this iteration     100.00

 eigenvalues of (default mixing * dielectric matrix)
  average eigenvalue GAMMA=   0.7349
  1.3884  1.3884  0.0362  0.7528  0.7528  0.3024  0.5230

 Free energy of the ion-electron system (eV)
  ---------------------------------------------------
  alpha Z        PSCENC =       855.26730748
  Ewald energy   TEWEN  =    -10164.08185497
  -Hartree energ DENC   =    -13172.22011099
  -exchange      EXHF   =         0.00000000
  -V(xc)+E(xc)   XCENC  =      1361.81007034
  PAW double counting   =     47185.71873335   -47113.75104153
  entropy T*S    EENTRO =        -1.26603605
  eigenvalues    EBANDS =     -3396.46779321
  atomic energy  EATOM  =     23737.50903913
  ---------------------------------------------------
  free energy    TOTEN  =      -707.48168647 eV

  energy without entropy =     -706.21565042  energy(sigma->0) =     -706.84866844


--------------------------------------------------------------------------------------------------------




----------------------------------------- Iteration    1(   9)  ---------------------------------------


    POTLOK:  cpu time    4.10: real time    4.11
    SETDIJ:  cpu time    0.01: real time    0.01
    EDDIAG:  cpu time    0.33: real time    0.33
  RMM-DIIS:  cpu time    1.20: real time    1.20
    ORTHCH:  cpu time    0.08: real time    0.08
       DOS:  cpu time    0.00: real time    0.00
    CHARGE:  cpu time    0.15: real time    0.15
[...]
   -.104E+03 -.719E+02 0.105E+02   0.105E+03 0.727E+02 -.107E+02   -.767E+00 -.834E+00 0.174E+00   -.310E-03 -.428E-03 0.260E-03
   0.104E+03 0.719E+02 -.105E+02   -.105E+03 -.727E+02 0.107E+02   0.767E+00 0.834E+00 -.174E+00   0.302E-03 0.435E-03 -.249E-03
   -.103E+02 0.126E+03 0.105E+02   0.107E+02 -.127E+03 -.107E+02   -.338E+00 0.108E+01 0.174E+00   -.229E-03 0.477E-03 0.260E-03
   0.103E+02 -.126E+03 -.105E+02   -.107E+02 0.127E+03 0.107E+02   0.338E+00 -.108E+01 -.174E+00   0.231E-03 -.479E-03 -.252E-03
   0.114E+03 -.540E+02 0.105E+02   -.115E+03 0.542E+02 -.107E+02   0.111E+01 -.248E+00 0.174E+00   0.517E-03 -.368E-04 0.261E-03
   -.114E+03 0.540E+02 -.105E+02   0.115E+03 -.542E+02 0.107E+02   -.111E+01 0.248E+00 -.174E+00   -.533E-03 0.443E-04 -.249E-03
   -.358E-04 -.284E-04 0.161E+03   -.136E-04 -.154E-04 -.162E+03   -.402E-15 0.625E-15 0.120E+01   0.109E-04 -.526E-05 0.483E-03
   -.198E-04 -.479E-04 -.161E+03   -.135E-04 -.167E-04 0.162E+03   0.396E-15 -.625E-15 -.120E+01   0.616E-05 -.351E-05 -.475E-03
   0.698E-05 -.214E-04 -.161E+03   -.651E-05 -.194E-04 0.162E+03   0.409E-15 -.625E-15 -.120E+01   -.112E-04 0.577E-05 -.483E-03
   -.179E-04 -.174E-04 0.161E+03   -.776E-05 -.200E-04 -.162E+03   -.396E-15 0.625E-15 0.120E+01   -.592E-05 0.286E-05 0.475E-03
   -.274E-05 -.484E-05 0.494E-04   0.144E-04 0.250E-04 0.224E-04   0.318E-21 -.529E-22 0.212E-21   0.485E-06 -.115E-05 0.533E-07
   0.577E-06 0.903E-06 0.348E-04   0.497E-04 0.861E-04 -.318E-05   -.212E-21 0.529E-21 0.169E-20   -.304E-06 0.142E-05 -.820E-06
   -.628E-05 0.615E-05 0.322E+02   -.285E-04 -.331E-04 -.322E+02   0.108E-16 -.160E-16 -.311E-01   0.164E-04 -.791E-05 -.226E-03
   0.164E-04 0.603E-05 -.322E+02   -.289E-04 -.357E-04 0.322E+02   -.104E-16 0.160E-16 0.311E-01   0.835E-06 -.121E-05 0.218E-03
   -.949E-05 -.335E-04 -.322E+02   -.144E-04 -.412E-04 0.322E+02   -.108E-16 0.160E-16 0.311E-01   -.171E-04 0.907E-05 0.226E-03
   -.209E-04 -.139E-04 0.322E+02   -.165E-04 -.429E-04 -.322E+02   0.106E-16 -.160E-16 -.311E-01   -.539E-06 -.361E-06 -.218E-03
   0.749E+02 -.545E+01 -.705E+02   -.581E+02 -.643E+01 0.615E+02   -.168E+02 0.119E+02 0.901E+01   -.108E-02 0.677E-03 0.739E-03
   -.749E+02 0.545E+01 0.705E+02   0.581E+02 0.643E+01 -.615E+02   0.168E+02 -.119E+02 -.901E+01   0.109E-02 -.684E-03 -.750E-03
   -.327E+02 0.676E+02 -.705E+02   0.346E+02 -.471E+02 0.615E+02   -.189E+01 -.205E+02 0.901E+01   -.537E-04 -.128E-02 0.737E-03
   0.327E+02 -.676E+02 0.705E+02   -.346E+02 0.471E+02 -.615E+02   0.189E+01 0.205E+02 -.901E+01   0.498E-04 0.128E-02 -.744E-03
   -.422E+02 -.621E+02 -.705E+02   0.235E+02 0.535E+02 0.615E+02   0.187E+02 0.860E+01 0.901E+01   0.113E-02 0.602E-03 0.738E-03
   0.422E+02 0.621E+02 0.705E+02   -.235E+02 -.535E+02 -.615E+02   -.187E+02 -.860E+01 -.901E+01   -.114E-02 -.600E-03 -.743E-03
   -.422E+02 0.621E+02 0.705E+02   0.235E+02 -.535E+02 -.615E+02   0.187E+02 -.860E+01 -.901E+01   0.113E-02 -.595E-03 -.739E-03
   0.422E+02 -.621E+02 -.705E+02   -.235E+02 0.535E+02 0.615E+02   -.187E+02 0.860E+01 0.901E+01   -.114E-02 0.602E-03 0.749E-03
   0.749E+02 0.545E+01 0.705E+02   -.581E+02 0.643E+01 -.615E+02   -.168E+02 -.119E+02 -.901E+01   -.108E-02 -.687E-03 -.737E-03
   -.749E+02 -.545E+01 -.705E+02   0.581E+02 -.643E+01 0.615E+02   0.168E+02 0.119E+02 0.901E+01   0.109E-02 0.685E-03 0.742E-03
   -.327E+02 -.676E+02 0.705E+02   0.346E+02 0.471E+02 -.615E+02   -.189E+01 0.205E+02 -.901E+01   -.426E-04 0.128E-02 -.738E-03
   0.327E+02 0.676E+02 -.705E+02   -.346E+02 -.471E+02 0.615E+02   0.189E+01 -.205E+02 0.901E+01   0.471E-04 -.128E-02 0.743E-03
   0.248E+03 -.765E+02 -.192E+03   -.250E+03 0.757E+02 0.195E+03   0.247E+01 0.801E+00 -.297E+01   -.285E-03 0.148E-03 0.110E-03
   -.248E+03 0.765E+02 0.192E+03   0.250E+03 -.757E+02 -.195E+03   -.247E+01 -.801E+00 0.297E+01   0.294E-03 -.155E-03 -.128E-03
   -.576E+02 0.253E+03 -.192E+03   0.595E+02 -.254E+03 0.195E+03   -.193E+01 0.174E+01 -.297E+01   0.357E-05 -.326E-03 0.107E-03
   0.576E+02 -.253E+03 0.192E+03   -.595E+02 0.254E+03 -.195E+03   0.193E+01 -.174E+01 0.297E+01   -.145E-04 0.334E-03 -.120E-03
   -.190E+03 -.176E+03 -.192E+03   0.191E+03 0.179E+03 0.195E+03   -.544E+00 -.254E+01 -.297E+01   0.272E-03 0.181E-03 0.106E-03
   0.190E+03 0.176E+03 0.192E+03   -.191E+03 -.179E+03 -.195E+03   0.544E+00 0.254E+01 0.297E+01   -.283E-03 -.177E-03 -.120E-03
   -.190E+03 0.176E+03 0.192E+03   0.191E+03 -.179E+03 -.195E+03   -.544E+00 0.254E+01 0.297E+01   0.272E-03 -.172E-03 -.109E-03
   0.190E+03 -.176E+03 -.192E+03   -.191E+03 0.179E+03 0.195E+03   0.544E+00 -.254E+01 -.297E+01   -.282E-03 0.177E-03 0.128E-03
   0.248E+03 0.765E+02 0.192E+03   -.250E+03 -.757E+02 -.195E+03   0.247E+01 -.801E+00 0.297E+01   -.285E-03 -.161E-03 -.106E-03
   -.248E+03 -.765E+02 -.192E+03   0.250E+03 0.757E+02 0.195E+03   -.247E+01 0.801E+00 -.297E+01   0.297E-03 0.156E-03 0.119E-03
   -.576E+02 -.253E+03 0.192E+03   0.595E+02 0.254E+03 -.195E+03   -.193E+01 -.174E+01 0.297E+01   0.221E-04 0.327E-03 -.107E-03
   0.576E+02 0.253E+03 -.192E+03   -.595E+02 -.254E+03 0.195E+03   0.193E+01 0.174E+01 -.297E+01   -.131E-04 -.335E-03 0.120E-03
 -----------------------------------------------------------------------------------------------
   0.165E-02 0.286E-02 0.982E-02   0.256E-12 -.369E-12 0.568E-13   0.844E-14 0.444E-15 0.488E-14   -.209E-05 -.660E-06 -.418E-05
 
 
 POSITION                                       TOTAL-FORCE (eV/Angst)
 -----------------------------------------------------------------------------------
     -8.53119      2.99928      6.49708         0.001242      0.001211      0.000192
    -16.80875     11.63075      7.93040        -0.001242     -0.001211     -0.000192
     -4.66684      2.08465      6.49708        -0.001670      0.000470      0.000192
    -20.67310     12.54537      7.93040         0.001670     -0.000470     -0.000192
     -5.80693      5.88859      6.49708         0.000427     -0.001681      0.000192
    -19.53302      8.74143      7.93040        -0.000427      0.001681     -0.000192
     -5.80693      1.42642      0.71666         0.000427      0.001681     -0.000192
    -19.53302     13.20360     13.71082        -0.000427     -0.001681      0.000192
     -8.53119      4.31573      0.71666         0.001242     -0.001211     -0.000192
    -16.80875     10.31429     13.71082        -0.001242      0.001211      0.000192
     -4.66684      5.23036      0.71666        -0.001670     -0.000470     -0.000192
    -20.67310      9.39966     13.71082         0.001670      0.000470      0.000192
     -8.57730      4.22752      5.66412         0.001743      0.000014      0.001142
    -16.76264     10.40250      8.76335        -0.001743     -0.000014     -0.001142
    -12.04246     12.40311      5.66412        -0.000884      0.001503      0.001142
    -13.29748      2.22691      8.76335         0.000884     -0.001503     -0.001142
    -17.39015      5.31440      5.66412        -0.000859     -0.001517      0.001142
     -7.94980      9.31562      8.76335         0.000859      0.001517     -0.001142
     -4.72018      2.00061      1.54962        -0.000859      0.001517     -0.001142
    -20.61977     12.62941     12.87786         0.000859     -0.001517      0.001142
     -8.57730      3.08749      1.54962         0.001743     -0.000014     -0.001142
    -16.76264     11.54254     12.87786        -0.001743      0.000014      0.001142
     -5.70748      5.88442      1.54962        -0.000884     -0.001503     -0.001142
    -19.63247      8.74560     12.87786         0.000884      0.001503      0.001142
     -8.12261      5.82006      4.15448         0.003289      0.002770     -0.004693
    -17.21733      8.80996     10.27300        -0.003289     -0.002770      0.004693
    -13.64898     12.00062      4.15448        -0.004043      0.001464     -0.004693
    -11.69096      2.62941     10.27300         0.004043     -0.001464      0.004693
    -16.23832      4.12436      4.15448         0.000754     -0.004233     -0.004693
     -9.10163     10.50566     10.27300        -0.000754      0.004233      0.004693
     -3.56835      3.19065      3.05926         0.000754      0.004233      0.004693
    -21.77160     11.43937     11.36821        -0.000754     -0.004233     -0.004693
     -8.12261      1.49495      3.05926         0.003289     -0.002770      0.004693
    -17.21733     13.13507     11.36821        -0.003289      0.002770     -0.004693
     -7.31400      6.28691      3.05926        -0.004043     -0.001464      0.004693
    -18.02595      8.34311     11.36821         0.004043      0.001464     -0.004693
     -9.16098      6.44533      4.79581        -0.000120      0.000493      0.002261
    -16.17896      8.18469      9.63166         0.000120     -0.000493     -0.002261
    -13.67130     10.78873      4.79581        -0.000367     -0.000350      0.002261
    -11.66864      3.84129      9.63166         0.000367      0.000350     -0.002261
    -15.17764      4.71098      4.79581         0.000487     -0.000142      0.002261
    -10.16231      9.91905      9.63166        -0.000487      0.000142     -0.002261
     -2.50766      2.60403      2.41792         0.000487      0.000142     -0.002261
    -22.83228     12.02599     12.00955        -0.000487     -0.000142      0.002261
     -9.16098      0.86968      2.41792        -0.000120     -0.000493     -0.002261
    -16.17896     13.76034     12.00955         0.000120      0.000493      0.002261
     -7.33631      7.49880      2.41792        -0.000367      0.000350     -0.002261
    -18.00363      7.13122     12.00955         0.000367     -0.000350      0.002261
     -8.79657      2.10961      5.90442         0.001472      0.000180     -0.000009
    -16.54337     12.52041      8.52306        -0.001472     -0.000180      0.000009
     -3.76368      2.29966      5.90442        -0.000892      0.001185     -0.000009
    -21.57626     12.33037      8.52306         0.000892     -0.001185      0.000009
     -6.44471      6.56325      5.90442        -0.000580     -0.001364     -0.000009
    -18.89524      8.06678      8.52306         0.000580      0.001364      0.000009
     -6.44471      0.75176      1.30932        -0.000580      0.001364      0.000009
    -18.89524     13.87826     13.11815         0.000580     -0.001364     -0.000009
     -8.79657      5.20540      1.30932         0.001472     -0.000180      0.000009
    -16.54337      9.42463     13.11815        -0.001472      0.000180     -0.000009
     -3.76368      5.01536      1.30932        -0.000892     -0.001185      0.000009
    -21.57626      9.61467     13.11815         0.000892      0.001185     -0.000009
     -9.24775      3.09490      7.32427         0.001136      0.000353      0.000016
    -16.09220     11.53512      7.10320        -0.001136     -0.000353     -0.000016
    -10.72636     12.38880      7.32427        -0.000874      0.000807      0.000016
    -14.61358      2.24122      7.10320         0.000874     -0.000807     -0.000016
    -18.03581      6.46133      7.32427        -0.000262     -0.001160      0.000016
     -7.30414      8.16869      7.10320         0.000262      0.001160     -0.000016
    -11.70082      4.51118     14.31694        -0.000262      0.001160     -0.000016
    -13.63913     10.11884      0.11053         0.000262     -0.001160      0.000016
    -15.58273      7.87761     14.31694         0.001136     -0.000353     -0.000016
     -9.75721      6.75241      0.11053        -0.001136      0.000353      0.000016
    -10.72636      9.55624     14.31694        -0.000874     -0.000807     -0.000016
    -14.61358      5.07379      0.11053         0.000874      0.000807      0.000016
     -7.53664      2.84238      6.94316         0.001417     -0.000005      0.000296
    -17.80331     11.78764      7.48432        -0.001417      0.000005     -0.000296
     -5.02824      3.02441      6.94316        -0.000704      0.001229      0.000296
    -20.31170     11.60562      7.48432         0.000704     -0.001229     -0.000296
     -6.44008      5.10573      6.94316        -0.000713     -0.001224      0.000296
    -18.89987      9.52430      7.48432         0.000713      0.001224     -0.000296
     -6.44008      2.20928      0.27058        -0.000713      0.001224     -0.000296
    -18.89987     12.42074     14.15689         0.000713     -0.001224      0.000296
     -7.53664      4.47263      0.27058         0.001417      0.000005     -0.000296
    -17.80331     10.15740     14.15689        -0.001417     -0.000005      0.000296
     -5.02824      4.29061      0.27058        -0.000704     -0.001229     -0.000296
    -20.31170     10.33942     14.15689         0.000704      0.001229      0.000296
     -9.60247      7.41586      4.57508         0.002551      0.003079     -0.000504
    -15.73747      7.21416      9.85239        -0.002551     -0.003079      0.000504
    -14.29106      9.92112      4.57508        -0.003942      0.000670     -0.000504
    -11.04889      4.70890      9.85239         0.003942     -0.000670      0.000504
    -14.11639      4.60806      4.57508         0.001391     -0.003748     -0.000504
    -11.22356     10.02197      9.85239        -0.001391      0.003748      0.000504
    -14.11639      2.70696      2.63866         0.001391      0.003748      0.000504
    -11.22356     11.92307     11.78882        -0.001391     -0.003748     -0.000504
    -15.93746     10.87167      2.63866         0.002551     -0.003079      0.000504
     -9.40249      3.75835     11.78882        -0.002551      0.003079     -0.000504
     -7.95607      8.36641      2.63866        -0.003942     -0.000670      0.000504
    -17.38387      6.26361     11.78882         0.003942      0.000670     -0.000504
    -12.06236      2.08806      4.73417        -0.000713     -0.006285      0.004917
    -13.27758     12.54196      9.69330         0.000713      0.006285     -0.004917
     -8.44711     10.45469      4.73417         0.005800      0.002525      0.004917
    -16.89284      4.17533      9.69330        -0.005800     -0.002525     -0.004917
    -17.50045      9.40228      4.73417        -0.005087      0.003761      0.004917
     -7.83950      5.22775      9.69330         0.005087     -0.003761     -0.004917
    -11.16546      8.88525      2.47956        -0.005087     -0.003761     -0.004917
    -14.17448      5.74477     11.94791         0.005087      0.003761      0.004917
    -12.06236      5.22695      2.47956        -0.000713      0.006285     -0.004917
    -13.27758      9.40308     11.94791         0.000713     -0.006285      0.004917
    -14.78209      7.83284      2.47956         0.005800     -0.002525     -0.004917
    -10.55785      6.79719     11.94791        -0.005800      0.002525      0.004917
    -19.00496     10.97252      1.74082        -0.000000      0.000000      0.009492
     -6.33499      3.65751     12.68666         0.000000     -0.000000     -0.009492
    -12.66997      7.31501      5.47292         0.000000     -0.000000     -0.009492
    -12.66997      7.31501      8.95455        -0.000000      0.000000      0.009492
     -6.33499      3.65751      3.60687         0.000000     -0.000000      0.000000
    -19.00496     10.97252     10.82061         0.000000     -0.000000      0.000000
    -19.00496     10.97252      4.03478        -0.000000      0.000000      0.000805
     -6.33499      3.65751     10.39269         0.000000     -0.000000     -0.000805
    -12.66997      7.31501      3.17895         0.000000     -0.000000     -0.000805
    -12.66997      7.31501     11.24852        -0.000000      0.000000      0.000805
     -7.79023      4.55626      4.64151         0.001681     -0.001891     -0.000461
    -17.54972     10.07376      9.78596        -0.001681      0.001891      0.000461
     -6.38571      1.94785      4.64151         0.000797      0.002402     -0.000461
    -18.95424     12.68217      9.78596        -0.000797     -0.002402      0.000461
     -4.82902      4.46841      4.64151        -0.002479     -0.000510     -0.000461
    -20.51092     10.16162      9.78596         0.002479      0.000510      0.000461
     -4.82902      2.84660      2.57223        -0.002479      0.000510      0.000461
    -20.51092     11.78342     11.85525         0.002479     -0.000510     -0.000461
     -7.79023      2.75875      2.57223         0.001681      0.001891      0.000461
    -17.54971     11.87127     11.85525        -0.001681     -0.001891     -0.000461
     -6.38571      5.36716      2.57223         0.000797     -0.002402      0.000461
    -18.95424      9.26286     11.85525        -0.000797      0.002402     -0.000461
     -9.74559      5.43759      6.04227         0.001122      0.001955      0.000525
    -15.59435      9.19244      8.38521        -0.001122     -0.001955     -0.000525
    -12.50626     10.78631      6.04227        -0.002254     -0.000006      0.000525
    -12.83368      3.84371      8.38521         0.002254      0.000006     -0.000525
    -15.75806      5.72114      6.04227         0.001132     -0.001949      0.000525
     -9.58189      8.90888      8.38521        -0.001132      0.001949     -0.000525
     -3.08809      1.59387      1.17147         0.001132      0.001949     -0.000525
    -22.25186     13.03615     13.25601        -0.001132     -0.001949      0.000525
     -9.74559      1.87743      1.17147         0.001122     -0.001955     -0.000525
    -15.59435     12.75260     13.25601        -0.001122      0.001955      0.000525
     -6.17128      7.50122      1.17147        -0.002254      0.000006     -0.000525
    -19.16867      7.12880     13.25601         0.002254     -0.000006      0.000525
 -----------------------------------------------------------------------------------
    total drift:                                0.001650      0.002860      0.009818


--------------------------------------------------------------------------------------------------------



  FREE ENERGIE OF THE ION-ELECTRON SYSTEM (eV)
  ---------------------------------------------------
  free  energy   TOTEN  =      -707.48169596 eV

  energy  without entropy=     -706.22615367  energy(sigma->0) =     -706.85392482
  enthalpy is  TOTEN    =      -712.48920416 eV   P V=       -5.00750820

 d Force = 0.6140867E-07[-0.168E-05, 0.180E-05]  d Energy = 0.4686157E-06-0.407E-06
 d Force =-0.1644881E-01[-0.165E-01,-0.164E-01]  d Ewald  =-0.5111617E-02-0.113E-01


--------------------------------------------------------------------------------------------------------


    POTLOK:  cpu time   13.42: real time   13.44


--------------------------------------------------------------------------------------------------------




--------------------------------------------------------------------------------------------------------


  
 reached required accuracy - stopping structural energy minimisation
 writing wavefunctions
     LOOP+:  cpu time   48.77: real time   56.00
    4ORBIT:  cpu time    0.00: real time    0.00

 total amount of memory used by VASP on root node    63286. kBytes
========================================================================

   base      :      30000. kBytes
   nonlr-proj:       6684. kBytes
   fftplans  :       4902. kBytes
   grid      :      12289. kBytes
   one-center:         77. kBytes
   wavefun   :       9334. kBytes
 
  
  
 General timing and accounting informations for this job:
 ========================================================
  
                  Total CPU time used (sec):      276.717
                            User time (sec):      272.937
                          System time (sec):        3.780
                         Elapsed time (sec):      317.170
  
                   Maximum memory used (kb):      210548.
                   Average memory used (kb):           0.
  
                          Minor page faults:       716680
                          Major page faults:           37
                 Voluntary context switches:         4407
