Cl_Substituted                          
           1
    -6.335166   10.972829   -0.000000
   -12.670332    0.000000   -0.000000
    -6.335166    3.657610   14.427300
   C    H    Br   Fe   N    S 
  48  48  16   6  12  12
Cl_Substituted                          
           1
    -6.335025   10.972586   -0.000000
   -12.670051    0.000000   -0.000000
    -6.335025    3.657529   14.427335
   C    H    Br   Fe   N    S 
  48  48  16   6  12  12
Direct configuration=     1
   0.12323132  0.38656238  0.45032807
   0.87676868  0.61343763  0.54967192
   0.03987823  0.12323132  0.45032807
   0.96012177  0.87676868  0.54967192
   0.38656237  0.03987824  0.45032807
   0.61343762  0.96012177  0.54967192
   0.11343761  0.37676868  0.04967194
   0.88656237  0.62323132  0.95032808
   0.37676867  0.46012176  0.04967194
   0.62323132  0.53987823  0.95032808
   0.46012176  0.11343762  0.04967194
   0.53987823  0.88656238  0.95032808
   0.25440977  0.35348052  0.39259336
   0.74559023  0.64651951  0.60740659
   0.99951636  0.25440979  0.39259336
   0.00048367  0.74559024  0.60740659
   0.35348051  0.99951634  0.39259336
   0.64651950  0.00048366  0.60740659
   0.14651948  0.24559023  0.10740665
   0.85348050  0.75440978  0.89259339
   0.24559021  0.50048364  0.10740665
   0.75440976  0.49951633  0.89259339
   0.50048366  0.14651949  0.10740665
   0.49951635  0.85348051  0.89259339
   0.43444197  0.27989193  0.28795089
   0.56555801  0.72010808  0.71204914
   0.99771523  0.43444198  0.28795089
   0.00228478  0.56555802  0.71204914
   0.27989191  0.99771521  0.28795089
   0.72010807  0.00228476  0.71204914
   0.22010808  0.06555804  0.21204909
   0.77989192  0.93444199  0.78795086
   0.06555803  0.50228477  0.21204909
   0.93444198  0.49771522  0.78795086
   0.50228479  0.22010810  0.21204909
   0.49771524  0.77989193  0.78795086
   0.47659780  0.31854752  0.33240853
   0.52340217  0.68145249  0.66759150
   0.87244616  0.47659782  0.33240853
   0.12755385  0.52340219  0.66759150
   0.31854750  0.87244614  0.33240853
   0.68145248  0.12755383  0.66759150
   0.18145249  0.02340220  0.16759146
   0.81854751  0.97659783  0.83240850
   0.02340219  0.62755385  0.16759146
   0.97659781  0.37244615  0.83240850
   0.62755387  0.18145250  0.16759146
   0.37244617  0.81854752  0.83240850
   0.05584753  0.46174105  0.40924811
   0.94415247  0.53825895  0.59075188
   0.07316331  0.05584754  0.40924811
   0.92683670  0.94415247  0.59075188
   0.46174106  0.07316331  0.40924811
   0.53825896  0.92683669  0.59075188
   0.03825895  0.44415246  0.09075190
   0.96174105  0.55584753  0.90924812
   0.44415246  0.42683669  0.09075190
   0.55584753  0.57316330  0.90924812
   0.42683669  0.03825894  0.09075190
   0.57316331  0.96174104  0.90924812
   0.11283926  0.41964702  0.50765869
   0.88716074  0.58035301  0.49234126
   0.95985503  0.11283928  0.50765869
   0.04014497  0.88716075  0.49234126
   0.41964700  0.95985505  0.50765869
   0.58035299  0.04014498  0.49234126
   0.08035298  0.38716074  0.99234129
   0.91964699  0.61283926  0.00765874
   0.38716073  0.54014497  0.99234129
   0.61283925  0.45985503  0.00765874
   0.54014496  0.08035300  0.99234129
   0.45985502  0.91964701  0.00765874
   0.09863196  0.30490880  0.48124418
   0.90136803  0.69509122  0.51875580
   0.11521507  0.09863197  0.48124418
   0.88478495  0.90136805  0.51875580
   0.30490879  0.11521506  0.48124418
   0.69509121  0.88478494  0.51875580
   0.19509120  0.40136804  0.01875583
   0.80490878  0.59863197  0.98124420
   0.40136803  0.38478493  0.01875583
   0.59863195  0.61521505  0.98124420
   0.38478494  0.19509121  0.01875583
   0.61521506  0.80490879  0.98124420
   0.57015091  0.31427034  0.31710918
   0.42984910  0.68572969  0.68289078
   0.79846958  0.57015092  0.31710918
   0.20153045  0.42984910  0.68289078
   0.31427033  0.79846956  0.31710918
   0.68572967  0.20153044  0.68289078
   0.18572965  0.92984908  0.18289083
   0.81427031  0.07015090  0.81710923
   0.92984908  0.70153042  0.18289083
   0.07015089  0.29846954  0.81710923
   0.70153044  0.18572967  0.18289083
   0.29846956  0.81427033  0.81710923
   0.08091251  0.74753310  0.32813853
   0.91908747  0.25246687  0.67186153
   0.84341587  0.08091251  0.32813853
   0.15658413  0.91908747  0.67186153
   0.74753311  0.84341585  0.32813853
   0.25246689  0.15658411  0.67186153
   0.75246690  0.41908749  0.17186148
   0.24753312  0.58091253  0.82813849
   0.41908748  0.65658413  0.17186148
   0.58091252  0.34341586  0.82813849
   0.65658415  0.75246689  0.17186148
   0.34341588  0.24753311  0.82813849
   0.95978164  0.95978162  0.12065511
   0.04021840  0.04021838  0.87934484
   0.54021838  0.54021836  0.37934490
   0.45978163  0.45978161  0.62065514
   0.25000001  0.24999999  0.24999999
   0.74999998  0.75000002  0.75000000
   0.90677624  0.90677622  0.27967132
   0.09322380  0.09322378  0.72032864
   0.59322378  0.59322376  0.22032869
   0.40677622  0.40677620  0.77967137
   0.30799791  0.30000128  0.32171689
   0.69200211  0.69999875  0.67828309
   0.07028393  0.30799790  0.32171689
   0.92971608  0.69200209  0.67828309
   0.30000126  0.07028393  0.32171689
   0.69999873  0.92971607  0.67828309
   0.19999872  0.19200208  0.17828312
   0.80000125  0.80799789  0.82171691
   0.19200210  0.42971606  0.17828312
   0.80799791  0.57028392  0.82171691
   0.42971607  0.19999874  0.17828312
   0.57028393  0.80000127  0.82171691
   0.35596416  0.38181129  0.41880108
   0.64403581  0.61818867  0.58119897
   0.84342345  0.35596417  0.41880108
   0.15657652  0.64403582  0.58119897
   0.38181131  0.84342346  0.41880108
   0.61818869  0.15657653  0.58119897
   0.11818871  0.14403584  0.08119893
   0.88181133  0.85596419  0.91880102
   0.14403583  0.65657655  0.08119893
   0.85596418  0.34342348  0.91880102
   0.65657654  0.11818869  0.08119893
   0.34342347  0.88181131  0.91880102
Cl_Substituted                          
           1
    -6.335063   10.972652   -0.000000
   -12.670127    0.000000   -0.000000
    -6.335063    3.657551   14.427325
   C    H    Br   Fe   N    S 
  48  48  16   6  12  12
Direct configuration=     2
   0.12323379  0.38656011  0.45032727
   0.87676621  0.61343990  0.54967272
   0.03987883  0.12323379  0.45032727
   0.96012117  0.87676621  0.54967272
   0.38656010  0.03987884  0.45032727
   0.61343989  0.96012117  0.54967272
   0.11343988  0.37676621  0.04967274
   0.88656010  0.62323379  0.95032728
   0.37676620  0.46012116  0.04967274
   0.62323379  0.53987883  0.95032728
   0.46012116  0.11343989  0.04967274
   0.53987883  0.88656011  0.95032728
   0.25441580  0.35347613  0.39259270
   0.74558419  0.64652390  0.60740726
   0.99951538  0.25441582  0.39259270
   0.00048465  0.74558421  0.60740726
   0.35347612  0.99951536  0.39259270
   0.64652389  0.00048464  0.60740726
   0.14652387  0.24558419  0.10740731
   0.85347611  0.75441581  0.89259273
   0.24558417  0.50048462  0.10740731
   0.75441579  0.49951535  0.89259273
   0.50048463  0.14652388  0.10740731
   0.49951537  0.85347612  0.89259273
   0.43443712  0.27989531  0.28795534
   0.56556286  0.72010469  0.71204469
   0.99771224  0.43443713  0.28795534
   0.00228777  0.56556287  0.71204469
   0.27989530  0.99771222  0.28795534
   0.72010468  0.00228775  0.71204469
   0.22010469  0.06556288  0.21204464
   0.77989531  0.93443714  0.78795531
   0.06556287  0.50228777  0.21204464
   0.93443713  0.49771223  0.78795531
   0.50228779  0.22010471  0.21204464
   0.49771225  0.77989532  0.78795531
   0.47660185  0.31854301  0.33240786
   0.52339813  0.68145699  0.66759216
   0.87244728  0.47660186  0.33240786
   0.12755273  0.52339815  0.66759216
   0.31854300  0.87244726  0.33240786
   0.68145698  0.12755271  0.66759216
   0.18145699  0.02339816  0.16759212
   0.81854301  0.97660187  0.83240784
   0.02339814  0.62755272  0.16759212
   0.97660185  0.37244727  0.83240784
   0.62755274  0.18145700  0.16759212
   0.37244729  0.81854302  0.83240784
   0.05584746  0.46173873  0.40924816
   0.94415255  0.53826126  0.59075183
   0.07316566  0.05584746  0.40924816
   0.92683435  0.94415255  0.59075183
   0.46173874  0.07316565  0.40924816
   0.53826128  0.92683435  0.59075183
   0.03826127  0.44415254  0.09075185
   0.96173874  0.55584745  0.90924817
   0.44415254  0.42683434  0.09075185
   0.55584745  0.57316565  0.90924817
   0.42683435  0.03826126  0.09075185
   0.57316565  0.96173872  0.90924817
   0.11283912  0.41964575  0.50766034
   0.88716088  0.58035429  0.49233961
   0.95985480  0.11283913  0.50766034
   0.04014520  0.88716089  0.49233961
   0.41964573  0.95985482  0.50766034
   0.58035427  0.04014521  0.49233961
   0.08035426  0.38716088  0.99233964
   0.91964571  0.61283912  0.00766039
   0.38716087  0.54014520  0.99233964
   0.61283911  0.45985480  0.00766039
   0.54014519  0.08035428  0.99233964
   0.45985479  0.91964573  0.00766039
   0.09863108  0.30490626  0.48124498
   0.90136891  0.69509375  0.51875500
   0.11521768  0.09863109  0.48124498
   0.88478233  0.90136893  0.51875500
   0.30490625  0.11521767  0.48124498
   0.69509374  0.88478232  0.51875500
   0.19509373  0.40136892  0.01875503
   0.80490625  0.59863109  0.98124500
   0.40136891  0.38478231  0.01875503
   0.59863107  0.61521767  0.98124500
   0.38478232  0.19509374  0.01875503
   0.61521768  0.80490626  0.98124500
   0.57015264  0.31426452  0.31710909
   0.42984737  0.68573551  0.68289087
   0.79847376  0.57015265  0.31710909
   0.20152627  0.42984737  0.68289087
   0.31426450  0.79847374  0.31710909
   0.68573549  0.20152626  0.68289087
   0.18573548  0.92984735  0.18289092
   0.81426448  0.07015263  0.81710914
   0.92984735  0.70152624  0.18289092
   0.07015263  0.29847372  0.81710914
   0.70152625  0.18573550  0.18289092
   0.29847374  0.81426450  0.81710914
   0.08091687  0.74752166  0.32813651
   0.91908310  0.25247831  0.67186354
   0.84342496  0.08091688  0.32813651
   0.15657505  0.91908311  0.67186354
   0.74752167  0.84342494  0.32813651
   0.25247832  0.15657503  0.67186354
   0.75247834  0.41908312  0.17186350
   0.24752169  0.58091689  0.82813648
   0.41908312  0.65657504  0.17186350
   0.58091689  0.34342495  0.82813648
   0.65657506  0.75247832  0.17186350
   0.34342497  0.24752167  0.82813648
   0.95977722  0.95977720  0.12066836
   0.04022281  0.04022279  0.87933159
   0.54022279  0.54022277  0.37933165
   0.45977721  0.45977719  0.62066840
   0.25000001  0.24999999  0.24999999
   0.74999998  0.75000002  0.75000000
   0.90677871  0.90677869  0.27966389
   0.09322132  0.09322130  0.72033608
   0.59322130  0.59322128  0.22033612
   0.40677870  0.40677868  0.77966394
   0.30800317  0.29999959  0.32171483
   0.69199685  0.70000043  0.67828515
   0.07028242  0.30800315  0.32171483
   0.92971759  0.69199684  0.67828515
   0.29999957  0.07028242  0.32171483
   0.70000041  0.92971758  0.67828515
   0.20000041  0.19199683  0.17828518
   0.79999957  0.80800315  0.82171485
   0.19199684  0.42971758  0.17828518
   0.80800316  0.57028241  0.82171485
   0.42971758  0.20000042  0.17828518
   0.57028242  0.79999959  0.82171485
   0.35596304  0.38180779  0.41880227
   0.64403694  0.61819217  0.58119778
   0.84342688  0.35596305  0.41880227
   0.15657309  0.64403695  0.58119778
   0.38180781  0.84342689  0.41880227
   0.61819219  0.15657310  0.58119778
   0.11819220  0.14403696  0.08119774
   0.88180783  0.85596307  0.91880221
   0.14403695  0.65657311  0.08119774
   0.85596306  0.34342691  0.91880221
   0.65657310  0.11819218  0.08119774
   0.34342690  0.88180781  0.91880221
Cl_Substituted                          
           1
    -6.335009   10.972558   -0.000000
   -12.670019    0.000000   -0.000000
    -6.335009    3.657519   14.427429
   C    H    Br   Fe   N    S 
  48  48  16   6  12  12
Direct configuration=     3
   0.12323312  0.38656073  0.45032748
   0.87676688  0.61343929  0.54967250
   0.03987867  0.12323313  0.45032748
   0.96012133  0.87676688  0.54967250
   0.38656072  0.03987868  0.45032748
   0.61343928  0.96012133  0.54967250
   0.11343927  0.37676687  0.04967252
   0.88656071  0.62323312  0.95032750
   0.37676687  0.46012133  0.04967252
   0.62323312  0.53987867  0.95032750
   0.46012132  0.11343928  0.04967252
   0.53987867  0.88656072  0.95032750
   0.25441417  0.35347732  0.39259288
   0.74558583  0.64652271  0.60740708
   0.99951564  0.25441419  0.39259288
   0.00048439  0.74558584  0.60740708
   0.35347731  0.99951563  0.39259288
   0.64652270  0.00048437  0.60740708
   0.14652268  0.24558583  0.10740713
   0.85347730  0.75441418  0.89259291
   0.24558581  0.50048435  0.10740713
   0.75441416  0.49951562  0.89259291
   0.50048437  0.14652269  0.10740713
   0.49951563  0.85347731  0.89259291
   0.43443843  0.27989440  0.28795413
   0.56556155  0.72010561  0.71204589
   0.99771305  0.43443845  0.28795413
   0.00228696  0.56556156  0.71204589
   0.27989438  0.99771303  0.28795413
   0.72010559  0.00228694  0.71204589
   0.22010561  0.06556157  0.21204585
   0.77989439  0.93443845  0.78795411
   0.06556156  0.50228696  0.21204585
   0.93443844  0.49771304  0.78795411
   0.50228698  0.22010563  0.21204585
   0.49771306  0.77989441  0.78795411
   0.47660075  0.31854423  0.33240804
   0.52339922  0.68145577  0.66759198
   0.87244698  0.47660077  0.33240804
   0.12755303  0.52339924  0.66759198
   0.31854422  0.87244696  0.33240804
   0.68145576  0.12755301  0.66759198
   0.18145577  0.02339925  0.16759194
   0.81854423  0.97660078  0.83240802
   0.02339924  0.62755303  0.16759194
   0.97660076  0.37244697  0.83240802
   0.62755305  0.18145579  0.16759194
   0.37244699  0.81854424  0.83240802
   0.05584748  0.46173936  0.40924814
   0.94415253  0.53826064  0.59075184
   0.07316502  0.05584748  0.40924814
   0.92683499  0.94415253  0.59075184
   0.46173937  0.07316502  0.40924814
   0.53826065  0.92683498  0.59075184
   0.03826064  0.44415252  0.09075187
   0.96173936  0.55584747  0.90924816
   0.44415252  0.42683498  0.09075187
   0.55584747  0.57316501  0.90924816
   0.42683498  0.03826063  0.09075187
   0.57316502  0.96173935  0.90924816
   0.11283916  0.41964609  0.50765989
   0.88716084  0.58035394  0.49234006
   0.95985486  0.11283917  0.50765989
   0.04014514  0.88716086  0.49234006
   0.41964607  0.95985488  0.50765989
   0.58035392  0.04014515  0.49234006
   0.08035391  0.38716085  0.99234009
   0.91964606  0.61283916  0.00765994
   0.38716083  0.54014514  0.99234009
   0.61283914  0.45985486  0.00765994
   0.54014513  0.08035393  0.99234009
   0.45985485  0.91964608  0.00765994
   0.09863131  0.30490695  0.48124477
   0.90136868  0.69509307  0.51875522
   0.11521697  0.09863133  0.48124477
   0.88478304  0.90136869  0.51875522
   0.30490694  0.11521697  0.48124477
   0.69509306  0.88478303  0.51875522
   0.19509305  0.40136868  0.01875524
   0.80490693  0.59863132  0.98124478
   0.40136867  0.38478302  0.01875524
   0.59863131  0.61521696  0.98124478
   0.38478303  0.19509306  0.01875524
   0.61521697  0.80490694  0.98124478
   0.57015218  0.31426609  0.31710912
   0.42984783  0.68573394  0.68289085
   0.79847262  0.57015218  0.31710912
   0.20152740  0.42984784  0.68289085
   0.31426608  0.79847261  0.31710912
   0.68573392  0.20152739  0.68289085
   0.18573390  0.92984782  0.18289089
   0.81426606  0.07015216  0.81710917
   0.92984782  0.70152737  0.18289089
   0.07015216  0.29847259  0.81710917
   0.70152739  0.18573392  0.18289089
   0.29847261  0.81426608  0.81710917
   0.08091569  0.74752475  0.32813706
   0.91908429  0.25247521  0.67186299
   0.84342250  0.08091570  0.32813706
   0.15657751  0.91908429  0.67186299
   0.74752477  0.84342248  0.32813706
   0.25247523  0.15657749  0.67186299
   0.75247524  0.41908430  0.17186295
   0.24752478  0.58091571  0.82813702
   0.41908430  0.65657750  0.17186295
   0.58091570  0.34342249  0.82813702
   0.65657752  0.75247523  0.17186295
   0.34342251  0.24752477  0.82813702
   0.95977842  0.95977840  0.12066477
   0.04022162  0.04022160  0.87933518
   0.54022160  0.54022158  0.37933524
   0.45977841  0.45977839  0.62066481
   0.25000001  0.24999999  0.24999999
   0.74999998  0.75000002  0.75000000
   0.90677804  0.90677802  0.27966590
   0.09322199  0.09322197  0.72033406
   0.59322197  0.59322195  0.22033411
   0.40677803  0.40677801  0.77966595
   0.30800175  0.30000005  0.32171539
   0.69199828  0.69999998  0.67828460
   0.07028283  0.30800173  0.32171539
   0.92971718  0.69199826  0.67828460
   0.30000003  0.07028282  0.32171539
   0.69999996  0.92971718  0.67828460
   0.19999995  0.19199825  0.17828462
   0.80000002  0.80800172  0.82171540
   0.19199827  0.42971717  0.17828462
   0.80800174  0.57028282  0.82171540
   0.42971717  0.19999997  0.17828462
   0.57028282  0.80000004  0.82171540
   0.35596334  0.38180874  0.41880195
   0.64403664  0.61819123  0.58119810
   0.84342595  0.35596335  0.41880195
   0.15657402  0.64403665  0.58119810
   0.38180876  0.84342596  0.41880195
   0.61819125  0.15657403  0.58119810
   0.11819126  0.14403666  0.08119806
   0.88180878  0.85596337  0.91880189
   0.14403665  0.65657404  0.08119806
   0.85596336  0.34342598  0.91880189
   0.65657403  0.11819124  0.08119806
   0.34342597  0.88180876  0.91880189
Cl_Substituted                          
           1
    -6.334986   10.972518   -0.000000
   -12.669972    0.000000   -0.000000
    -6.334986    3.657506   14.427474
   C    H    Br   Fe   N    S 
  48  48  16   6  12  12
Direct configuration=     4
   0.12323482  0.38655905  0.45032702
   0.87676518  0.61344097  0.54967297
   0.03987912  0.12323482  0.45032702
   0.96012088  0.87676518  0.54967297
   0.38655904  0.03987912  0.45032702
   0.61344096  0.96012089  0.54967297
   0.11344095  0.37676518  0.04967299
   0.88655903  0.62323482  0.95032703
   0.37676517  0.46012088  0.04967299
   0.62323482  0.53987912  0.95032703
   0.46012087  0.11344096  0.04967299
   0.53987911  0.88655904  0.95032703
   0.25441740  0.35347452  0.39259265
   0.74558259  0.64652551  0.60740731
   0.99951544  0.25441742  0.39259265
   0.00048459  0.74558261  0.60740731
   0.35347451  0.99951543  0.39259265
   0.64652550  0.00048457  0.60740731
   0.14652548  0.24558259  0.10740736
   0.85347450  0.75441741  0.89259268
   0.24558257  0.50048456  0.10740736
   0.75441739  0.49951542  0.89259268
   0.50048457  0.14652549  0.10740736
   0.49951543  0.85347451  0.89259268
   0.43443686  0.27989530  0.28795539
   0.56556312  0.72010471  0.71204463
   0.99771246  0.43443687  0.28795539
   0.00228755  0.56556313  0.71204463
   0.27989529  0.99771244  0.28795539
   0.72010469  0.00228753  0.71204463
   0.22010470  0.06556315  0.21204459
   0.77989529  0.93443688  0.78795537
   0.06556313  0.50228755  0.21204459
   0.93443687  0.49771245  0.78795537
   0.50228757  0.22010472  0.21204459
   0.49771247  0.77989531  0.78795537
   0.47660289  0.31854165  0.33240822
   0.52339709  0.68145835  0.66759180
   0.87244724  0.47660290  0.33240822
   0.12755277  0.52339711  0.66759180
   0.31854164  0.87244722  0.33240822
   0.68145834  0.12755275  0.66759180
   0.18145835  0.02339712  0.16759176
   0.81854165  0.97660291  0.83240820
   0.02339710  0.62755276  0.16759176
   0.97660289  0.37244723  0.83240820
   0.62755278  0.18145837  0.16759176
   0.37244725  0.81854166  0.83240820
   0.05584744  0.46173786  0.40924813
   0.94415256  0.53826213  0.59075185
   0.07316656  0.05584744  0.40924813
   0.92683344  0.94415256  0.59075185
   0.46173787  0.07316656  0.40924813
   0.53826215  0.92683344  0.59075185
   0.03826214  0.44415256  0.09075188
   0.96173787  0.55584744  0.90924815
   0.44415255  0.42683343  0.09075188
   0.55584744  0.57316656  0.90924815
   0.42683344  0.03826213  0.09075188
   0.57316656  0.96173785  0.90924815
   0.11283916  0.41964515  0.50766082
   0.88716085  0.58035488  0.49233913
   0.95985488  0.11283917  0.50766082
   0.04014512  0.88716086  0.49233913
   0.41964513  0.95985489  0.50766082
   0.58035486  0.04014514  0.49233913
   0.08035485  0.38716085  0.99233916
   0.91964512  0.61283915  0.00766087
   0.38716084  0.54014513  0.99233916
   0.61283914  0.45985488  0.00766087
   0.54014511  0.08035487  0.99233916
   0.45985486  0.91964514  0.00766087
   0.09863081  0.30490525  0.48124527
   0.90136918  0.69509477  0.51875471
   0.11521867  0.09863082  0.48124527
   0.88478134  0.90136920  0.51875471
   0.30490524  0.11521867  0.48124527
   0.69509476  0.88478133  0.51875471
   0.19509475  0.40136919  0.01875474
   0.80490523  0.59863082  0.98124529
   0.40136917  0.38478132  0.01875474
   0.59863080  0.61521866  0.98124529
   0.38478133  0.19509476  0.01875474
   0.61521867  0.80490524  0.98124529
   0.57015387  0.31426215  0.31710896
   0.42984614  0.68573788  0.68289100
   0.79847503  0.57015388  0.31710896
   0.20152499  0.42984614  0.68289100
   0.31426213  0.79847502  0.31710896
   0.68573787  0.20152498  0.68289100
   0.18573785  0.92984612  0.18289105
   0.81426211  0.07015386  0.81710901
   0.92984612  0.70152496  0.18289105
   0.07015386  0.29847500  0.81710901
   0.70152498  0.18573787  0.18289105
   0.29847502  0.81426213  0.81710901
   0.08091920  0.74751776  0.32813631
   0.91908077  0.25248220  0.67186374
   0.84342672  0.08091921  0.32813631
   0.15657328  0.91908078  0.67186374
   0.74751778  0.84342670  0.32813631
   0.25248222  0.15657326  0.67186374
   0.75248223  0.41908079  0.17186370
   0.24751779  0.58091922  0.82813627
   0.41908079  0.65657327  0.17186370
   0.58091922  0.34342672  0.82813627
   0.65657329  0.75248222  0.17186370
   0.34342674  0.24751778  0.82813627
   0.95977956  0.95977954  0.12066135
   0.04022048  0.04022046  0.87933860
   0.54022046  0.54022044  0.37933866
   0.45977955  0.45977953  0.62066138
   0.25000001  0.24999999  0.24999999
   0.74999998  0.75000002  0.75000000
   0.90677948  0.90677946  0.27966160
   0.09322056  0.09322054  0.72033836
   0.59322054  0.59322052  0.22033841
   0.40677946  0.40677944  0.77966165
   0.30800404  0.29999893  0.32171399
   0.69199599  0.70000109  0.67828599
   0.07028306  0.30800402  0.32171399
   0.92971695  0.69199597  0.67828599
   0.29999891  0.07028305  0.32171399
   0.70000108  0.92971695  0.67828599
   0.20000107  0.19199596  0.17828602
   0.79999891  0.80800401  0.82171401
   0.19199598  0.42971694  0.17828602
   0.80800403  0.57028305  0.82171401
   0.42971694  0.20000108  0.17828602
   0.57028305  0.79999892  0.82171401
   0.35596319  0.38180629  0.41880269
   0.64403679  0.61819367  0.58119735
   0.84342781  0.35596320  0.41880269
   0.15657217  0.64403680  0.58119735
   0.38180631  0.84342782  0.41880269
   0.61819369  0.15657218  0.58119735
   0.11819370  0.14403681  0.08119732
   0.88180633  0.85596322  0.91880263
   0.14403680  0.65657219  0.08119732
   0.85596321  0.34342784  0.91880263
   0.65657218  0.11819368  0.08119732
   0.34342783  0.88180631  0.91880263
Cl_Substituted                          
           1
    -6.334986   10.972518   -0.000000
   -12.669972    0.000000   -0.000000
    -6.334986    3.657506   14.427474
   C    H    Br   Fe   N    S 
  48  48  16   6  12  12
Direct configuration=     5
   0.12323556  0.38655832  0.45032682
   0.87676445  0.61344169  0.54967317
   0.03987931  0.12323556  0.45032682
   0.96012069  0.87676445  0.54967317
   0.38655831  0.03987932  0.45032682
   0.61344168  0.96012069  0.54967317
   0.11344167  0.37676444  0.04967319
   0.88655831  0.62323555  0.95032683
   0.37676444  0.46012069  0.04967319
   0.62323555  0.53987931  0.95032683
   0.46012068  0.11344168  0.04967319
   0.53987931  0.88655832  0.95032683
   0.25441880  0.35347330  0.39259255
   0.74558119  0.64652672  0.60740741
   0.99951535  0.25441882  0.39259255
   0.00048468  0.74558121  0.60740741
   0.35347329  0.99951534  0.39259255
   0.64652671  0.00048466  0.60740741
   0.14652669  0.24558119  0.10740746
   0.85347328  0.75441881  0.89259258
   0.24558118  0.50048464  0.10740746
   0.75441879  0.49951533  0.89259258
   0.50048466  0.14652670  0.10740746
   0.49951534  0.85347329  0.89259258
   0.43443618  0.27989569  0.28795593
   0.56556380  0.72010431  0.71204409
   0.99771220  0.43443619  0.28795593
   0.00228781  0.56556381  0.71204409
   0.27989568  0.99771218  0.28795593
   0.72010430  0.00228779  0.71204409
   0.22010431  0.06556383  0.21204404
   0.77989569  0.93443620  0.78795591
   0.06556381  0.50228780  0.21204404
   0.93443619  0.49771219  0.78795591
   0.50228782  0.22010433  0.21204404
   0.49771221  0.77989570  0.78795591
   0.47660381  0.31854054  0.33240830
   0.52339617  0.68145947  0.66759172
   0.87244736  0.47660383  0.33240830
   0.12755265  0.52339618  0.66759172
   0.31854052  0.87244734  0.33240830
   0.68145946  0.12755263  0.66759172
   0.18145947  0.02339620  0.16759168
   0.81854053  0.97660383  0.83240828
   0.02339618  0.62755265  0.16759168
   0.97660382  0.37244735  0.83240828
   0.62755267  0.18145948  0.16759168
   0.37244737  0.81854054  0.83240828
   0.05584743  0.46173721  0.40924813
   0.94415258  0.53826278  0.59075186
   0.07316723  0.05584743  0.40924813
   0.92683278  0.94415258  0.59075186
   0.46173722  0.07316723  0.40924813
   0.53826279  0.92683277  0.59075186
   0.03826279  0.44415257  0.09075188
   0.96173722  0.55584742  0.90924814
   0.44415257  0.42683276  0.09075188
   0.55584742  0.57316722  0.90924814
   0.42683277  0.03826277  0.09075188
   0.57316723  0.96173721  0.90924814
   0.11283916  0.41964474  0.50766122
   0.88716085  0.58035529  0.49233873
   0.95985489  0.11283917  0.50766122
   0.04014511  0.88716086  0.49233873
   0.41964473  0.95985490  0.50766122
   0.58035527  0.04014513  0.49233873
   0.08035526  0.38716085  0.99233876
   0.91964471  0.61283915  0.00766127
   0.38716084  0.54014512  0.99233876
   0.61283914  0.45985489  0.00766127
   0.54014510  0.08035528  0.99233876
   0.45985487  0.91964473  0.00766127
   0.09863059  0.30490451  0.48124549
   0.90136940  0.69509550  0.51875449
   0.11521941  0.09863060  0.48124549
   0.88478060  0.90136942  0.51875449
   0.30490450  0.11521940  0.48124549
   0.69509549  0.88478059  0.51875449
   0.19509549  0.40136941  0.01875452
   0.80490450  0.59863060  0.98124551
   0.40136939  0.38478059  0.01875452
   0.59863058  0.61521940  0.98124551
   0.38478059  0.19509550  0.01875452
   0.61521941  0.80490451  0.98124551
   0.57015461  0.31426044  0.31710889
   0.42984540  0.68573959  0.68289107
   0.79847607  0.57015461  0.31710889
   0.20152395  0.42984540  0.68289107
   0.31426042  0.79847606  0.31710889
   0.68573957  0.20152394  0.68289107
   0.18573956  0.92984539  0.18289112
   0.81426040  0.07015460  0.81710894
   0.92984538  0.70152392  0.18289112
   0.07015459  0.29847604  0.81710894
   0.70152394  0.18573958  0.18289112
   0.29847606  0.81426042  0.81710894
   0.08092072  0.74751474  0.32813599
   0.91907926  0.25248523  0.67186406
   0.84342855  0.08092073  0.32813599
   0.15657145  0.91907926  0.67186406
   0.74751475  0.84342853  0.32813599
   0.25248524  0.15657143  0.67186406
   0.75248526  0.41907927  0.17186402
   0.24751477  0.58092074  0.82813595
   0.41907927  0.65657144  0.17186402
   0.58092073  0.34342854  0.82813595
   0.65657146  0.75248524  0.17186402
   0.34342856  0.24751475  0.82813595
   0.95978006  0.95978004  0.12065986
   0.04021998  0.04021996  0.87934008
   0.54021996  0.54021994  0.37934014
   0.45978004  0.45978002  0.62065990
   0.25000001  0.24999999  0.24999999
   0.74999998  0.75000002  0.75000000
   0.90678010  0.90678008  0.27965974
   0.09321994  0.09321992  0.72034022
   0.59321992  0.59321990  0.22034026
   0.40678008  0.40678006  0.77965980
   0.30800503  0.29999845  0.32171339
   0.69199500  0.70000158  0.67828660
   0.07028315  0.30800501  0.32171339
   0.92971686  0.69199498  0.67828660
   0.29999843  0.07028315  0.32171339
   0.70000156  0.92971685  0.67828660
   0.20000155  0.19199497  0.17828663
   0.79999842  0.80800500  0.82171340
   0.19199499  0.42971684  0.17828663
   0.80800502  0.57028314  0.82171340
   0.42971685  0.20000157  0.17828663
   0.57028315  0.79999844  0.82171340
   0.35596312  0.38180523  0.41880301
   0.64403685  0.61819473  0.58119703
   0.84342861  0.35596313  0.41880301
   0.15657137  0.64403686  0.58119703
   0.38180525  0.84342862  0.41880301
   0.61819475  0.15657138  0.58119703
   0.11819476  0.14403687  0.08119700
   0.88180527  0.85596315  0.91880295
   0.14403686  0.65657139  0.08119700
   0.85596314  0.34342864  0.91880295
   0.65657138  0.11819474  0.08119700
   0.34342863  0.88180525  0.91880295
