   4   4   1   0
  0.1910505E+02  0.4763297E-09  0.4763297E-09  0.4763297E-09  0.5000000E-15
  1.000000000000000E-004
  CAR 
 unknown system                          
     14.45399431    -42.36283767  301      7.28086927      1.00000000
    -42.363  0.0000E+00  0.0000E+00
    -42.173  0.0000E+00  0.0000E+00
    -41.984  0.0000E+00  0.0000E+00
    -41.795  0.0000E+00  0.0000E+00
    -41.605  0.0000E+00  0.0000E+00
    -41.416  0.0000E+00  0.0000E+00
    -41.227  0.0000E+00  0.0000E+00
    -41.037  0.0000E+00  0.0000E+00
    -40.848  0.0000E+00  0.0000E+00
    -40.658  0.0000E+00  0.0000E+00
    -40.469  0.0000E+00  0.0000E+00
    -40.280  0.0000E+00  0.0000E+00
    -40.090  0.0000E+00  0.0000E+00
    -39.901  0.0000E+00  0.0000E+00
    -39.711  0.1056E+02  0.2000E+01
    -39.522  0.0000E+00  0.2000E+01
    -39.333  0.0000E+00  0.2000E+01
    -39.143  0.0000E+00  0.2000E+01
    -38.954  0.0000E+00  0.2000E+01
    -38.764  0.0000E+00  0.2000E+01
    -38.575  0.0000E+00  0.2000E+01
    -38.386  0.0000E+00  0.2000E+01
    -38.196  0.0000E+00  0.2000E+01
    -38.007  0.0000E+00  0.2000E+01
    -37.817  0.0000E+00  0.2000E+01
    -37.628  0.0000E+00  0.2000E+01
    -37.439  0.0000E+00  0.2000E+01
    -37.249  0.0000E+00  0.2000E+01
    -37.060  0.0000E+00  0.2000E+01
    -36.871  0.0000E+00  0.2000E+01
    -36.681  0.0000E+00  0.2000E+01
    -36.492  0.0000E+00  0.2000E+01
    -36.302  0.0000E+00  0.2000E+01
    -36.113  0.0000E+00  0.2000E+01
    -35.924  0.0000E+00  0.2000E+01
    -35.734  0.0000E+00  0.2000E+01
    -35.545  0.0000E+00  0.2000E+01
    -35.355  0.0000E+00  0.2000E+01
    -35.166  0.1056E+02  0.4000E+01
    -34.977  0.0000E+00  0.4000E+01
    -34.787  0.0000E+00  0.4000E+01
    -34.598  0.0000E+00  0.4000E+01
    -34.408  0.0000E+00  0.4000E+01
    -34.219  0.0000E+00  0.4000E+01
    -34.030  0.0000E+00  0.4000E+01
    -33.840  0.0000E+00  0.4000E+01
    -33.651  0.0000E+00  0.4000E+01
    -33.462  0.0000E+00  0.4000E+01
    -33.272  0.0000E+00  0.4000E+01
    -33.083  0.0000E+00  0.4000E+01
    -32.893  0.0000E+00  0.4000E+01
    -32.704  0.0000E+00  0.4000E+01
    -32.515  0.0000E+00  0.4000E+01
    -32.325  0.0000E+00  0.4000E+01
    -32.136  0.0000E+00  0.4000E+01
    -31.946  0.0000E+00  0.4000E+01
    -31.757  0.0000E+00  0.4000E+01
    -31.568  0.0000E+00  0.4000E+01
    -31.378  0.0000E+00  0.4000E+01
    -31.189  0.0000E+00  0.4000E+01
    -30.999  0.0000E+00  0.4000E+01
    -30.810  0.0000E+00  0.4000E+01
    -30.621  0.0000E+00  0.4000E+01
    -30.431  0.0000E+00  0.4000E+01
    -30.242  0.0000E+00  0.4000E+01
    -30.053  0.0000E+00  0.4000E+01
    -29.863  0.0000E+00  0.4000E+01
    -29.674  0.0000E+00  0.4000E+01
    -29.484  0.0000E+00  0.4000E+01
    -29.295  0.0000E+00  0.4000E+01
    -29.106  0.0000E+00  0.4000E+01
    -28.916  0.0000E+00  0.4000E+01
    -28.727  0.0000E+00  0.4000E+01
    -28.537  0.0000E+00  0.4000E+01
    -28.348  0.0000E+00  0.4000E+01
    -28.159  0.0000E+00  0.4000E+01
    -27.969  0.0000E+00  0.4000E+01
    -27.780  0.0000E+00  0.4000E+01
    -27.590  0.0000E+00  0.4000E+01
    -27.401  0.0000E+00  0.4000E+01
    -27.212  0.0000E+00  0.4000E+01
    -27.022  0.0000E+00  0.4000E+01
    -26.833  0.0000E+00  0.4000E+01
    -26.644  0.0000E+00  0.4000E+01
    -26.454  0.0000E+00  0.4000E+01
    -26.265  0.0000E+00  0.4000E+01
    -26.075  0.0000E+00  0.4000E+01
    -25.886  0.0000E+00  0.4000E+01
    -25.697  0.0000E+00  0.4000E+01
    -25.507  0.0000E+00  0.4000E+01
    -25.318  0.0000E+00  0.4000E+01
    -25.128  0.0000E+00  0.4000E+01
    -24.939  0.0000E+00  0.4000E+01
    -24.750  0.0000E+00  0.4000E+01
    -24.560  0.0000E+00  0.4000E+01
    -24.371  0.0000E+00  0.4000E+01
    -24.181  0.0000E+00  0.4000E+01
    -23.992  0.0000E+00  0.4000E+01
    -23.803  0.0000E+00  0.4000E+01
    -23.613  0.0000E+00  0.4000E+01
    -23.424  0.0000E+00  0.4000E+01
    -23.235  0.0000E+00  0.4000E+01
    -23.045  0.0000E+00  0.4000E+01
    -22.856  0.0000E+00  0.4000E+01
    -22.666  0.0000E+00  0.4000E+01
    -22.477  0.0000E+00  0.4000E+01
    -22.288  0.0000E+00  0.4000E+01
    -22.098  0.0000E+00  0.4000E+01
    -21.909  0.0000E+00  0.4000E+01
    -21.719  0.0000E+00  0.4000E+01
    -21.530  0.0000E+00  0.4000E+01
    -21.341  0.0000E+00  0.4000E+01
    -21.151  0.0000E+00  0.4000E+01
    -20.962  0.0000E+00  0.4000E+01
    -20.772  0.0000E+00  0.4000E+01
    -20.583  0.0000E+00  0.4000E+01
    -20.394  0.0000E+00  0.4000E+01
    -20.204  0.0000E+00  0.4000E+01
    -20.015  0.0000E+00  0.4000E+01
    -19.825  0.0000E+00  0.4000E+01
    -19.636  0.0000E+00  0.4000E+01
    -19.447  0.0000E+00  0.4000E+01
    -19.257  0.0000E+00  0.4000E+01
    -19.068  0.0000E+00  0.4000E+01
    -18.879  0.0000E+00  0.4000E+01
    -18.689  0.0000E+00  0.4000E+01
    -18.500  0.0000E+00  0.4000E+01
    -18.310  0.0000E+00  0.4000E+01
    -18.121  0.0000E+00  0.4000E+01
    -17.932  0.0000E+00  0.4000E+01
    -17.742  0.0000E+00  0.4000E+01
    -17.553  0.0000E+00  0.4000E+01
    -17.363  0.0000E+00  0.4000E+01
    -17.174  0.0000E+00  0.4000E+01
    -16.985  0.0000E+00  0.4000E+01
    -16.795  0.0000E+00  0.4000E+01
    -16.606  0.0000E+00  0.4000E+01
    -16.416  0.0000E+00  0.4000E+01
    -16.227  0.9647E+01  0.5827E+01
    -16.038  0.0000E+00  0.6000E+01
    -15.848  0.0000E+00  0.6000E+01
    -15.659  0.0000E+00  0.6000E+01
    -15.470  0.0000E+00  0.6000E+01
    -15.280  0.0000E+00  0.6000E+01
    -15.091  0.0000E+00  0.6000E+01
    -14.901  0.3632E+01  0.6688E+01
    -14.712  0.6997E+01  0.1000E+02
    -14.523  0.2112E+02  0.1400E+02
    -14.333  0.0000E+00  0.1400E+02
    -14.144  0.0000E+00  0.1400E+02
    -13.954  0.0000E+00  0.1400E+02
    -13.765  0.0000E+00  0.1400E+02
    -13.576  0.3115E+02  0.1990E+02
    -13.386  0.0000E+00  0.2000E+02
    -13.197  0.0000E+00  0.2000E+02
    -13.007  0.0000E+00  0.2000E+02
    -12.818  0.0000E+00  0.2000E+02
    -12.629  0.0000E+00  0.2000E+02
    -12.439  0.0000E+00  0.2000E+02
    -12.250  0.0000E+00  0.2000E+02
    -12.061  0.0000E+00  0.2000E+02
    -11.871  0.0000E+00  0.2000E+02
    -11.682  0.0000E+00  0.2000E+02
    -11.492  0.0000E+00  0.2000E+02
    -11.303  0.0000E+00  0.2000E+02
    -11.114  0.0000E+00  0.2000E+02
    -10.924  0.0000E+00  0.2000E+02
    -10.735  0.0000E+00  0.2000E+02
    -10.545  0.0000E+00  0.2000E+02
    -10.356  0.0000E+00  0.2000E+02
    -10.167  0.0000E+00  0.2000E+02
     -9.977  0.0000E+00  0.2000E+02
     -9.788  0.0000E+00  0.2000E+02
     -9.598  0.0000E+00  0.2000E+02
     -9.409  0.0000E+00  0.2000E+02
     -9.220  0.0000E+00  0.2000E+02
     -9.030  0.0000E+00  0.2000E+02
     -8.841  0.0000E+00  0.2000E+02
     -8.652  0.0000E+00  0.2000E+02
     -8.462  0.0000E+00  0.2000E+02
     -8.273  0.0000E+00  0.2000E+02
     -8.083  0.0000E+00  0.2000E+02
     -7.894  0.0000E+00  0.2000E+02
     -7.705  0.0000E+00  0.2000E+02
     -7.515  0.0000E+00  0.2000E+02
     -7.326  0.0000E+00  0.2000E+02
     -7.136  0.0000E+00  0.2000E+02
     -6.947  0.0000E+00  0.2000E+02
     -6.758  0.0000E+00  0.2000E+02
     -6.568  0.0000E+00  0.2000E+02
     -6.379  0.0000E+00  0.2000E+02
     -6.189  0.0000E+00  0.2000E+02
     -6.000  0.0000E+00  0.2000E+02
     -5.811  0.0000E+00  0.2000E+02
     -5.621  0.0000E+00  0.2000E+02
     -5.432  0.0000E+00  0.2000E+02
     -5.243  0.0000E+00  0.2000E+02
     -5.053  0.0000E+00  0.2000E+02
     -4.864  0.0000E+00  0.2000E+02
     -4.674  0.0000E+00  0.2000E+02
     -4.485  0.0000E+00  0.2000E+02
     -4.296  0.0000E+00  0.2000E+02
     -4.106  0.0000E+00  0.2000E+02
     -3.917  0.0000E+00  0.2000E+02
     -3.727  0.0000E+00  0.2000E+02
     -3.538  0.0000E+00  0.2000E+02
     -3.349  0.0000E+00  0.2000E+02
     -3.159  0.0000E+00  0.2000E+02
     -2.970  0.0000E+00  0.2000E+02
     -2.780  0.0000E+00  0.2000E+02
     -2.591  0.0000E+00  0.2000E+02
     -2.402  0.0000E+00  0.2000E+02
     -2.212  0.4031E-01  0.2001E+02
     -2.023  0.5771E+00  0.2016E+02
     -1.833  0.3159E+00  0.2024E+02
     -1.644  0.2640E+00  0.2029E+02
     -1.455  0.2194E+00  0.2035E+02
     -1.265  0.2209E+00  0.2040E+02
     -1.076  0.2574E+00  0.2045E+02
     -0.887  0.2879E+00  0.2052E+02
     -0.697  0.3500E+01  0.2119E+02
     -0.508  0.2705E+01  0.2200E+02
     -0.318  0.0000E+00  0.2200E+02
     -0.129  0.0000E+00  0.2200E+02
      0.060  0.0000E+00  0.2200E+02
      0.250  0.0000E+00  0.2200E+02
      0.439  0.0000E+00  0.2200E+02
      0.629  0.0000E+00  0.2200E+02
      0.818  0.0000E+00  0.2200E+02
      1.007  0.0000E+00  0.2200E+02
      1.197  0.0000E+00  0.2200E+02
      1.386  0.0000E+00  0.2200E+02
      1.576  0.0000E+00  0.2200E+02
      1.765  0.0000E+00  0.2200E+02
      1.954  0.6172E+00  0.2212E+02
      2.144  0.1344E+01  0.2246E+02
      2.333  0.2733E+01  0.2302E+02
      2.522  0.3135E+01  0.2370E+02
      2.712  0.4690E+01  0.2472E+02
      2.901  0.2954E+01  0.2542E+02
      3.091  0.4001E+01  0.2633E+02
      3.280  0.4253E+01  0.2723E+02
      3.469  0.6014E+01  0.2856E+02
      3.659  0.2287E+01  0.2919E+02
      3.848  0.1278E+01  0.2946E+02
      4.038  0.3172E+01  0.3013E+02
      4.227  0.5437E+01  0.3122E+02
      4.416  0.6373E+01  0.3262E+02
      4.606  0.3663E+01  0.3349E+02
      4.795  0.1836E+01  0.3386E+02
      4.985  0.1410E+01  0.3418E+02
      5.174  0.9802E+00  0.3441E+02
      5.363  0.9433E+00  0.3464E+02
      5.553  0.6530E+00  0.3479E+02
      5.742  0.1740E+01  0.3515E+02
      5.931  0.1818E+01  0.3553E+02
      6.121  0.2140E+01  0.3611E+02
      6.310  0.2021E+01  0.3660E+02
      6.500  0.2263E+01  0.3708E+02
      6.689  0.1446E+01  0.3756E+02
      6.878  0.7300E+00  0.3772E+02
      7.068  0.1342E+01  0.3800E+02
      7.257  0.0000E+00  0.3800E+02
      7.447  0.0000E+00  0.3800E+02
      7.636  0.1188E-12  0.3800E+02
      7.825  0.9920E+00  0.3819E+02
      8.015  0.3791E+00  0.3829E+02
      8.204  0.1066E+01  0.3851E+02
      8.394  0.2252E+01  0.3900E+02
      8.583  0.1728E+01  0.3940E+02
      8.772  0.2125E+01  0.3987E+02
      8.962  0.1841E+01  0.4028E+02
      9.151  0.1766E+01  0.4063E+02
      9.340  0.2146E+01  0.4116E+02
      9.530  0.4468E+01  0.4207E+02
      9.719  0.6197E+01  0.4348E+02
      9.909  0.6082E+01  0.4484E+02
     10.098  0.2770E+01  0.4547E+02
     10.287  0.1932E+01  0.4589E+02
     10.477  0.1447E+01  0.4621E+02
     10.666  0.4231E+01  0.4705E+02
     10.856  0.2515E+01  0.4767E+02
     11.045  0.5241E+00  0.4784E+02
     11.234  0.2462E+00  0.4789E+02
     11.424  0.2007E+00  0.4793E+02
     11.613  0.1267E+00  0.4796E+02
     11.803  0.9148E-01  0.4798E+02
     11.992  0.5867E-01  0.4800E+02
     12.181  0.0000E+00  0.4800E+02
     12.371  0.0000E+00  0.4800E+02
     12.560  0.0000E+00  0.4800E+02
     12.749  0.0000E+00  0.4800E+02
     12.939  0.0000E+00  0.4800E+02
     13.128  0.0000E+00  0.4800E+02
     13.318  0.0000E+00  0.4800E+02
     13.507  0.0000E+00  0.4800E+02
     13.696  0.0000E+00  0.4800E+02
     13.886  0.0000E+00  0.4800E+02
     14.075  0.0000E+00  0.4800E+02
     14.265  0.0000E+00  0.4800E+02
     14.454  0.0000E+00  0.4800E+02
     14.45399431    -42.36283767  301      7.28086927      1.00000000
    -42.363  0.0000E+00  0.0000E+00  0.0000E+00  0.0000E+00  0.0000E+00  0.0000E+00  0.0000E+00  0.0000E+00  0.0000E+00  0.0000E+00  0.0000E+00  0.0000E+00  0.0000E+00  0.0000E+00  0.0000E+00  0.0000E+00  0.0000E+00  0.0000E+00  0.0000E+00  0.0000E+00  0.0000E+00  0.0000E+00  0.0000E+00  0.0000E+00  0.0000E+00  0.0000E+00  0.0000E+00  0.0000E+00  0.0000E+00  0.0000E+00  0.0000E+00  0.0000E+00  0.0000E+00  0.0000E+00  0.0000E+00  0.0000E+00
      0.000  0.0000E+00  0.0000E+00  0.0000E+00  0.0000E+00  0.0000E+00  0.0000E+00  0.0000E+00  0.0000E+00  0.0000E+00  0.0000E+00  0.0000E+00  0.0000E+00  0.0000E+00  0.0000E+00  0.0000E+00  0.0000E+00  0.0000E+00  0.0000E+00  0.0000E+00  0.0000E+00  0.0000E+00  0.0000E+00  0.0000E+00  0.0000E+00  0.0000E+00  0.0000E+00  0.0000E+00
    -42.173  0.0000E+00  0.0000E+00  0.0000E+00  0.0000E+00  0.0000E+00  0.0000E+00  0.0000E+00  0.0000E+00  0.0000E+00  0.0000E+00  0.0000E+00  0.0000E+00  0.0000E+00  0.0000E+00  0.0000E+00  0.0000E+00  0.0000E+00  0.0000E+00  0.0000E+00  0.0000E+00  0.0000E+00  0.0000E+00  0.0000E+00  0.0000E+00  0.0000E+00  0.0000E+00  0.0000E+00  0.0000E+00  0.0000E+00  0.0000E+00  0.0000E+00  0.0000E+00  0.0000E+00  0.0000E+00  0.0000E+00  0.0000E+00
      0.000  0.0000E+00  0.0000E+00  0.0000E+00  0.0000E+00  0.0000E+00  0.0000E+00  0.0000E+00  0.0000E+00  0.0000E+00  0.0000E+00  0.0000E+00  0.0000E+00  0.0000E+00  0.0000E+00  0.0000E+00  0.0000E+00  0.0000E+00  0.0000E+00  0.0000E+00  0.0000E+00  0.0000E+00  0.0000E+00  0.0000E+00  0.0000E+00  0.0000E+00  0.0000E+00  0.0000E+00
    -41.984  0.0000E+00  0.0000E+00  0.0000E+00  0.0000E+00  0.0000E+00  0.0000E+00  0.0000E+00  0.0000E+00  0.0000E+00  0.0000E+00  0.0000E+00  0.0000E+00  0.0000E+00  0.0000E+00  0.0000E+00  0.0000E+00  0.0000E+00  0.0000E+00  0.0000E+00  0.0000E+00  0.0000E+00  0.0000E+00  0.0000E+00  0.0000E+00  0.0000E+00  0.0000E+00  0.0000E+00  0.0000E+00  0.0000E+00  0.0000E+00  0.0000E+00  0.0000E+00  0.0000E+00  0.0000E+00  0.0000E+00  0.0000E+00
      0.000  0.0000E+00  0.0000E+00  0.0000E+00  0.0000E+00  0.0000E+00  0.0000E+00  0.0000E+00  0.0000E+00  0.0000E+00  0.0000E+00  0.0000E+00  0.0000E+00  0.0000E+00  0.0000E+00  0.0000E+00  0.0000E+00  0.0000E+00  0.0000E+00  0.0000E+00  0.0000E+00  0.0000E+00  0.0000E+00  0.0000E+00  0.0000E+00  0.0000E+00  0.0000E+00  0.0000E+00
    -41.795  0.0000E+00  0.0000E+00  0.0000E+00  0.0000E+00  0.0000E+00  0.0000E+00  0.0000E+00  0.0000E+00  0.0000E+00  0.0000E+00  0.0000E+00  0.0000E+00  0.0000E+00  0.0000E+00  0.0000E+00  0.0000E+00  0.0000E+00  0.0000E+00  0.0000E+00  0.0000E+00  0.0000E+00  0.0000E+00  0.0000E+00  0.0000E+00  0.0000E+00  0.0000E+00  0.0000E+00  0.0000E+00  0.0000E+00  0.0000E+00  0.0000E+00  0.0000E+00  0.0000E+00  0.0000E+00  0.0000E+00  0.0000E+00
      0.000  0.0000E+00  0.0000E+00  0.0000E+00  0.0000E+00  0.0000E+00  0.0000E+00  0.0000E+00  0.0000E+00  0.0000E+00  0.0000E+00  0.0000E+00  0.0000E+00  0.0000E+00  0.0000E+00  0.0000E+00  0.0000E+00  0.0000E+00  0.0000E+00  0.0000E+00  0.0000E+00  0.0000E+00  0.0000E+00  0.0000E+00  0.0000E+00  0.0000E+00  0.0000E+00  0.0000E+00
    -41.605  0.0000E+00  0.0000E+00  0.0000E+00  0.0000E+00  0.0000E+00  0.0000E+00  0.0000E+00  0.0000E+00  0.0000E+00  0.0000E+00  0.0000E+00  0.0000E+00  0.0000E+00  0.0000E+00  0.0000E+00  0.0000E+00  0.0000E+00  0.0000E+00  0.0000E+00  0.0000E+00  0.0000E+00  0.0000E+00  0.0000E+00  0.0000E+00  0.0000E+00  0.0000E+00  0.0000E+00  0.0000E+00  0.0000E+00  0.0000E+00  0.0000E+00  0.0000E+00  0.0000E+00  0.0000E+00  0.0000E+00  0.0000E+00
      0.000  0.0000E+00  0.0000E+00  0.0000E+00  0.0000E+00  0.0000E+00  0.0000E+00  0.0000E+00  0.0000E+00  0.0000E+00  0.0000E+00  0.0000E+00  0.0000E+00  0.0000E+00  0.0000E+00  0.0000E+00  0.0000E+00  0.0000E+00  0.0000E+00  0.0000E+00  0.0000E+00  0.0000E+00  0.0000E+00  0.0000E+00  0.0000E+00  0.0000E+00  0.0000E+00  0.0000E+00
    -41.416  0.0000E+00  0.0000E+00  0.0000E+00  0.0000E+00  0.0000E+00  0.0000E+00  0.0000E+00  0.0000E+00  0.0000E+00  0.0000E+00  0.0000E+00  0.0000E+00  0.0000E+00  0.0000E+00  0.0000E+00  0.0000E+00  0.0000E+00  0.0000E+00  0.0000E+00  0.0000E+00  0.0000E+00  0.0000E+00  0.0000E+00  0.0000E+00  0.0000E+00  0.0000E+00  0.0000E+00  0.0000E+00  0.0000E+00  0.0000E+00  0.0000E+00  0.0000E+00  0.0000E+00  0.0000E+00  0.0000E+00  0.0000E+00
      0.000  0.0000E+00  0.0000E+00  0.0000E+00  0.0000E+00  0.0000E+00  0.0000E+00  0.0000E+00  0.0000E+00  0.0000E+00  0.0000E+00  0.0000E+00  0.0000E+00  0.0000E+00  0.0000E+00  0.0000E+00  0.0000E+00  0.0000E+00  0.0000E+00  0.0000E+00  0.0000E+00  0.0000E+00  0.0000E+00  0.0000E+00  0.0000E+00  0.0000E+00  0.0000E+00  0.0000E+00
    -41.227  0.0000E+00  0.0000E+00  0.0000E+00  0.0000E+00  0.0000E+00  0.0000E+00  0.0000E+00  0.0000E+00  0.0000E+00  0.0000E+00  0.0000E+00  0.0000E+00  0.0000E+00  0.0000E+00  0.0000E+00  0.0000E+00  0.0000E+00  0.0000E+00  0.0000E+00  0.0000E+00  0.0000E+00  0.0000E+00  0.0000E+00  0.0000E+00  0.0000E+00  0.0000E+00  0.0000E+00  0.0000E+00  0.0000E+00  0.0000E+00  0.0000E+00  0.0000E+00  0.0000E+00  0.0000E+00  0.0000E+00  0.0000E+00
      0.000  0.0000E+00  0.0000E+00  0.0000E+00  0.0000E+00  0.0000E+00  0.0000E+00  0.0000E+00  0.0000E+00  0.0000E+00  0.0000E+00  0.0000E+00  0.0000E+00  0.0000E+00  0.0000E+00  0.0000E+00  0.0000E+00  0.0000E+00  0.0000E+00  0.0000E+00  0.0000E+00  0.0000E+00  0.0000E+00  0.0000E+00  0.0000E+00  0.0000E+00  0.0000E+00  0.0000E+00
    -41.037  0.0000E+00  0.0000E+00  0.0000E+00  0.0000E+00  0.0000E+00  0.0000E+00  0.0000E+00  0.0000E+00  0.0000E+00  0.0000E+00  0.0000E+00  0.0000E+00  0.0000E+00  0.0000E+00  0.0000E+00  0.0000E+00  0.0000E+00  0.0000E+00  0.0000E+00  0.0000E+00  0.0000E+00  0.0000E+00  0.0000E+00  0.0000E+00  0.0000E+00  0.0000E+00  0.0000E+00  0.0000E+00  0.0000E+00  0.0000E+00  0.0000E+00  0.0000E+00  0.0000E+00  0.0000E+00  0.0000E+00  0.0000E+00
      0.000  0.0000E+00  0.0000E+00  0.0000E+00  0.0000E+00  0.0000E+00  0.0000E+00  0.0000E+00  0.0000E+00  0.0000E+00  0.0000E+00  0.0000E+00  0.0000E+00  0.0000E+00  0.0000E+00  0.0000E+00  0.0000E+00  0.0000E+00  0.0000E+00  0.0000E+00  0.0000E+00  0.0000E+00  0.0000E+00  0.0000E+00  0.0000E+00  0.0000E+00  0.0000E+00  0.0000E+00
    -40.848  0.0000E+00  0.0000E+00  0.0000E+00  0.0000E+00  0.0000E+00  0.0000E+00  0.0000E+00  0.0000E+00  0.0000E+00  0.0000E+00  0.0000E+00  0.0000E+00  0.0000E+00  0.0000E+00  0.0000E+00  0.0000E+00  0.0000E+00  0.0000E+00  0.0000E+00  0.0000E+00  0.0000E+00  0.0000E+00  0.0000E+00  0.0000E+00  0.0000E+00  0.0000E+00  0.0000E+00  0.0000E+00  0.0000E+00  0.0000E+00  0.0000E+00  0.0000E+00  0.0000E+00  0.0000E+00  0.0000E+00  0.0000E+00
      0.000  0.0000E+00  0.0000E+00  0.0000E+00  0.0000E+00  0.0000E+00  0.0000E+00  0.0000E+00  0.0000E+00  0.0000E+00  0.0000E+00  0.0000E+00  0.0000E+00  0.0000E+00  0.0000E+00  0.0000E+00  0.0000E+00  0.0000E+00  0.0000E+00  0.0000E+00  0.0000E+00  0.0000E+00  0.0000E+00  0.0000E+00  0.0000E+00  0.0000E+00  0.0000E+00  0.0000E+00
    -40.658  0.0000E+00  0.0000E+00  0.0000E+00  0.0000E+00  0.0000E+00  0.0000E+00  0.0000E+00  0.0000E+00  0.0000E+00  0.0000E+00  0.0000E+00  0.0000E+00  0.0000E+00  0.0000E+00  0.0000E+00  0.0000E+00  0.0000E+00  0.0000E+00  0.0000E+00  0.0000E+00  0.0000E+00  0.0000E+00  0.0000E+00  0.0000E+00  0.0000E+00  0.0000E+00  0.0000E+00  0.0000E+00  0.0000E+00  0.0000E+00  0.0000E+00  0.0000E+00  0.0000E+00  0.0000E+00  0.0000E+00  0.0000E+00
      0.000  0.0000E+00  0.0000E+00  0.0000E+00  0.0000E+00  0.0000E+00  0.0000E+00  0.0000E+00  0.0000E+00  0.0000E+00  0.0000E+00  0.0000E+00  0.0000E+00  0.0000E+00  0.0000E+00  0.0000E+00  0.0000E+00  0.0000E+00  0.0000E+00  0.0000E+00  0.0000E+00  0.0000E+00  0.0000E+00  0.0000E+00  0.0000E+00  0.0000E+00  0.0000E+00  0.0000E+00
    -40.469  0.0000E+00  0.0000E+00  0.0000E+00  0.0000E+00  0.0000E+00  0.0000E+00  0.0000E+00  0.0000E+00  0.0000E+00  0.0000E+00  0.0000E+00  0.0000E+00  0.0000E+00  0.0000E+00  0.0000E+00  0.0000E+00  0.0000E+00  0.0000E+00  0.0000E+00  0.0000E+00  0.0000E+00  0.0000E+00  0.0000E+00  0.0000E+00  0.0000E+00  0.0000E+00  0.0000E+00  0.0000E+00  0.0000E+00  0.0000E+00  0.0000E+00  0.0000E+00  0.0000E+00  0.0000E+00  0.0000E+00  0.0000E+00
      0.000  0.0000E+00  0.0000E+00  0.0000E+00  0.0000E+00  0.0000E+00  0.0000E+00  0.0000E+00  0.0000E+00  0.0000E+00  0.0000E+00  0.0000E+00  0.0000E+00  0.0000E+00  0.0000E+00  0.0000E+00  0.0000E+00  0.0000E+00  0.0000E+00  0.0000E+00  0.0000E+00  0.0000E+00  0.0000E+00  0.0000E+00  0.0000E+00  0.0000E+00  0.0000E+00  0.0000E+00
    -40.280  0.0000E+00  0.0000E+00  0.0000E+00  0.0000E+00  0.0000E+00  0.0000E+00  0.0000E+00  0.0000E+00  0.0000E+00  0.0000E+00  0.0000E+00  0.0000E+00  0.0000E+00  0.0000E+00  0.0000E+00  0.0000E+00  0.0000E+00  0.0000E+00  0.0000E+00  0.0000E+00  0.0000E+00  0.0000E+00  0.0000E+00  0.0000E+00  0.0000E+00  0.0000E+00  0.0000E+00  0.0000E+00  0.0000E+00  0.0000E+00  0.0000E+00  0.0000E+00  0.0000E+00  0.0000E+00  0.0000E+00  0.0000E+00
      0.000  0.0000E+00  0.0000E+00  0.0000E+00  0.0000E+00  0.0000E+00  0.0000E+00  0.0000E+00  0.0000E+00  0.0000E+00  0.0000E+00  0.0000E+00  0.0000E+00  0.0000E+00  0.0000E+00  0.0000E+00  0.0000E+00  0.0000E+00  0.0000E+00  0.0000E+00  0.0000E+00  0.0000E+00  0.0000E+00  0.0000E+00  0.0000E+00  0.0000E+00  0.0000E+00  0.0000E+00
    -40.090  0.0000E+00  0.0000E+00  0.0000E+00  0.0000E+00  0.0000E+00  0.0000E+00  0.0000E+00  0.0000E+00  0.0000E+00  0.0000E+00  0.0000E+00  0.0000E+00  0.0000E+00  0.0000E+00  0.0000E+00  0.0000E+00  0.0000E+00  0.0000E+00  0.0000E+00  0.0000E+00  0.0000E+00  0.0000E+00  0.0000E+00  0.0000E+00  0.0000E+00  0.0000E+00  0.0000E+00  0.0000E+00  0.0000E+00  0.0000E+00  0.0000E+00  0.0000E+00  0.0000E+00  0.0000E+00  0.0000E+00  0.0000E+00
      0.000  0.0000E+00  0.0000E+00  0.0000E+00  0.0000E+00  0.0000E+00  0.0000E+00  0.0000E+00  0.0000E+00  0.0000E+00  0.0000E+00  0.0000E+00  0.0000E+00  0.0000E+00  0.0000E+00  0.0000E+00  0.0000E+00  0.0000E+00  0.0000E+00  0.0000E+00  0.0000E+00  0.0000E+00  0.0000E+00  0.0000E+00  0.0000E+00  0.0000E+00  0.0000E+00  0.0000E+00
    -39.901  0.0000E+00  0.0000E+00  0.0000E+00  0.0000E+00  0.0000E+00  0.0000E+00  0.0000E+00  0.0000E+00  0.0000E+00  0.0000E+00  0.0000E+00  0.0000E+00  0.0000E+00  0.0000E+00  0.0000E+00  0.0000E+00  0.0000E+00  0.0000E+00  0.0000E+00  0.0000E+00  0.0000E+00  0.0000E+00  0.0000E+00  0.0000E+00  0.0000E+00  0.0000E+00  0.0000E+00  0.0000E+00  0.0000E+00  0.0000E+00  0.0000E+00  0.0000E+00  0.0000E+00  0.0000E+00  0.0000E+00  0.0000E+00
      0.000  0.0000E+00  0.0000E+00  0.0000E+00  0.0000E+00  0.0000E+00  0.0000E+00  0.0000E+00  0.0000E+00  0.0000E+00  0.0000E+00  0.0000E+00  0.0000E+00  0.0000E+00  0.0000E+00  0.0000E+00  0.0000E+00  0.0000E+00  0.0000E+00  0.0000E+00  0.0000E+00  0.0000E+00  0.0000E+00  0.0000E+00  0.0000E+00  0.0000E+00  0.0000E+00  0.0000E+00
    -39.711  0.1044E+02  0.4302E-05 -0.6141E-05 -0.4876E-05  0.4145E-07  0.1870E-08 -0.2711E-08 -0.1458E-08  0.1439E-07 -0.1208E-09 -0.1979E-08  0.2758E-09  0.2272E-07 -0.3839E-09 -0.2654E-08 -0.1288E-08  0.0000E+00  0.0000E+00  0.0000E+00  0.0000E+00  0.0000E+00  0.0000E+00  0.0000E+00  0.0000E+00  0.0000E+00  0.0000E+00  0.0000E+00  0.0000E+00  0.0000E+00  0.0000E+00  0.0000E+00  0.0000E+00  0.0000E+00  0.0000E+00  0.0000E+00  0.0000E+00
      0.000  0.0000E+00  0.0000E+00  0.0000E+00  0.0000E+00  0.0000E+00  0.0000E+00  0.0000E+00  0.0000E+00  0.0000E+00  0.0000E+00  0.0000E+00  0.0000E+00  0.0000E+00  0.0000E+00  0.0000E+00  0.0000E+00  0.0000E+00  0.0000E+00  0.0000E+00  0.0000E+00  0.0000E+00  0.0000E+00  0.0000E+00  0.0000E+00  0.0000E+00  0.0000E+00  0.0000E+00
    -39.522  0.0000E+00  0.0000E+00  0.0000E+00  0.0000E+00  0.0000E+00  0.0000E+00  0.0000E+00  0.0000E+00  0.0000E+00  0.0000E+00  0.0000E+00  0.0000E+00  0.0000E+00  0.0000E+00  0.0000E+00  0.0000E+00  0.0000E+00  0.0000E+00  0.0000E+00  0.0000E+00  0.0000E+00  0.0000E+00  0.0000E+00  0.0000E+00  0.0000E+00  0.0000E+00  0.0000E+00  0.0000E+00  0.0000E+00  0.0000E+00  0.0000E+00  0.0000E+00  0.0000E+00  0.0000E+00  0.0000E+00  0.0000E+00
      0.000  0.0000E+00  0.0000E+00  0.0000E+00  0.0000E+00  0.0000E+00  0.0000E+00  0.0000E+00  0.0000E+00  0.0000E+00  0.0000E+00  0.0000E+00  0.0000E+00  0.0000E+00  0.0000E+00  0.0000E+00  0.0000E+00  0.0000E+00  0.0000E+00  0.0000E+00  0.0000E+00  0.0000E+00  0.0000E+00  0.0000E+00  0.0000E+00  0.0000E+00  0.0000E+00  0.0000E+00
    -39.333  0.0000E+00  0.0000E+00  0.0000E+00  0.0000E+00  0.0000E+00  0.0000E+00  0.0000E+00  0.0000E+00  0.0000E+00  0.0000E+00  0.0000E+00  0.0000E+00  0.0000E+00  0.0000E+00  0.0000E+00  0.0000E+00  0.0000E+00  0.0000E+00  0.0000E+00  0.0000E+00  0.0000E+00  0.0000E+00  0.0000E+00  0.0000E+00  0.0000E+00  0.0000E+00  0.0000E+00  0.0000E+00  0.0000E+00  0.0000E+00  0.0000E+00  0.0000E+00  0.0000E+00  0.0000E+00  0.0000E+00  0.0000E+00
      0.000  0.0000E+00  0.0000E+00  0.0000E+00  0.0000E+00  0.0000E+00  0.0000E+00  0.0000E+00  0.0000E+00  0.0000E+00  0.0000E+00  0.0000E+00  0.0000E+00  0.0000E+00  0.0000E+00  0.0000E+00  0.0000E+00  0.0000E+00  0.0000E+00  0.0000E+00  0.0000E+00  0.0000E+00  0.0000E+00  0.0000E+00  0.0000E+00  0.0000E+00  0.0000E+00  0.0000E+00
    -39.143  0.0000E+00  0.0000E+00  0.0000E+00  0.0000E+00  0.0000E+00  0.0000E+00  0.0000E+00  0.0000E+00  0.0000E+00  0.0000E+00  0.0000E+00  0.0000E+00  0.0000E+00  0.0000E+00  0.0000E+00  0.0000E+00  0.0000E+00  0.0000E+00  0.0000E+00  0.0000E+00  0.0000E+00  0.0000E+00  0.0000E+00  0.0000E+00  0.0000E+00  0.0000E+00  0.0000E+00  0.0000E+00  0.0000E+00  0.0000E+00  0.0000E+00  0.0000E+00  0.0000E+00  0.0000E+00  0.0000E+00  0.0000E+00
      0.000  0.0000E+00  0.0000E+00  0.0000E+00  0.0000E+00  0.0000E+00  0.0000E+00  0.0000E+00  0.0000E+00  0.0000E+00  0.0000E+00  0.0000E+00  0.0000E+00  0.0000E+00  0.0000E+00  0.0000E+00  0.0000E+00  0.0000E+00  0.0000E+00  0.0000E+00  0.0000E+00  0.0000E+00  0.0000E+00  0.0000E+00  0.0000E+00  0.0000E+00  0.0000E+00  0.0000E+00
    -38.954  0.0000E+00  0.0000E+00  0.0000E+00  0.0000E+00  0.0000E+00  0.0000E+00  0.0000E+00  0.0000E+00  0.0000E+00  0.0000E+00  0.0000E+00  0.0000E+00  0.0000E+00  0.0000E+00  0.0000E+00  0.0000E+00  0.0000E+00  0.0000E+00  0.0000E+00  0.0000E+00  0.0000E+00  0.0000E+00  0.0000E+00  0.0000E+00  0.0000E+00  0.0000E+00  0.0000E+00  0.0000E+00  0.0000E+00  0.0000E+00  0.0000E+00  0.0000E+00  0.0000E+00  0.0000E+00  0.0000E+00  0.0000E+00
      0.000  0.0000E+00  0.0000E+00  0.0000E+00  0.0000E+00  0.0000E+00  0.0000E+00  0.0000E+00  0.0000E+00  0.0000E+00  0.0000E+00  0.0000E+00  0.0000E+00  0.0000E+00  0.0000E+00  0.0000E+00  0.0000E+00  0.0000E+00  0.0000E+00  0.0000E+00  0.0000E+00  0.0000E+00  0.0000E+00  0.0000E+00  0.0000E+00  0.0000E+00  0.0000E+00  0.0000E+00
    -38.764  0.0000E+00  0.0000E+00  0.0000E+00  0.0000E+00  0.0000E+00  0.0000E+00  0.0000E+00  0.0000E+00  0.0000E+00  0.0000E+00  0.0000E+00  0.0000E+00  0.0000E+00  0.0000E+00  0.0000E+00  0.0000E+00  0.0000E+00  0.0000E+00  0.0000E+00  0.0000E+00  0.0000E+00  0.0000E+00  0.0000E+00  0.0000E+00  0.0000E+00  0.0000E+00  0.0000E+00  0.0000E+00  0.0000E+00  0.0000E+00  0.0000E+00  0.0000E+00  0.0000E+00  0.0000E+00  0.0000E+00  0.0000E+00
      0.000  0.0000E+00  0.0000E+00  0.0000E+00  0.0000E+00  0.0000E+00  0.0000E+00  0.0000E+00  0.0000E+00  0.0000E+00  0.0000E+00  0.0000E+00  0.0000E+00  0.0000E+00  0.0000E+00  0.0000E+00  0.0000E+00  0.0000E+00  0.0000E+00  0.0000E+00  0.0000E+00  0.0000E+00  0.0000E+00  0.0000E+00  0.0000E+00  0.0000E+00  0.0000E+00  0.0000E+00
    -38.575  0.0000E+00  0.0000E+00  0.0000E+00  0.0000E+00  0.0000E+00  0.0000E+00  0.0000E+00  0.0000E+00  0.0000E+00  0.0000E+00  0.0000E+00  0.0000E+00  0.0000E+00  0.0000E+00  0.0000E+00  0.0000E+00  0.0000E+00  0.0000E+00  0.0000E+00  0.0000E+00  0.0000E+00  0.0000E+00  0.0000E+00  0.0000E+00  0.0000E+00  0.0000E+00  0.0000E+00  0.0000E+00  0.0000E+00  0.0000E+00  0.0000E+00  0.0000E+00  0.0000E+00  0.0000E+00  0.0000E+00  0.0000E+00
      0.000  0.0000E+00  0.0000E+00  0.0000E+00  0.0000E+00  0.0000E+00  0.0000E+00  0.0000E+00  0.0000E+00  0.0000E+00  0.0000E+00  0.0000E+00  0.0000E+00  0.0000E+00  0.0000E+00  0.0000E+00  0.0000E+00  0.0000E+00  0.0000E+00  0.0000E+00  0.0000E+00  0.0000E+00  0.0000E+00  0.0000E+00  0.0000E+00  0.0000E+00  0.0000E+00  0.0000E+00
    -38.386  0.0000E+00  0.0000E+00  0.0000E+00  0.0000E+00  0.0000E+00  0.0000E+00  0.0000E+00  0.0000E+00  0.0000E+00  0.0000E+00  0.0000E+00  0.0000E+00  0.0000E+00  0.0000E+00  0.0000E+00  0.0000E+00  0.0000E+00  0.0000E+00  0.0000E+00  0.0000E+00  0.0000E+00  0.0000E+00  0.0000E+00  0.0000E+00  0.0000E+00  0.0000E+00  0.0000E+00  0.0000E+00  0.0000E+00  0.0000E+00  0.0000E+00  0.0000E+00  0.0000E+00  0.0000E+00  0.0000E+00  0.0000E+00
      0.000  0.0000E+00  0.0000E+00  0.0000E+00  0.0000E+00  0.0000E+00  0.0000E+00  0.0000E+00  0.0000E+00  0.0000E+00  0.0000E+00  0.0000E+00  0.0000E+00  0.0000E+00  0.0000E+00  0.0000E+00  0.0000E+00  0.0000E+00  0.0000E+00  0.0000E+00  0.0000E+00  0.0000E+00  0.0000E+00  0.0000E+00  0.0000E+00  0.0000E+00  0.0000E+00  0.0000E+00
    -38.196  0.0000E+00  0.0000E+00  0.0000E+00  0.0000E+00  0.0000E+00  0.0000E+00  0.0000E+00  0.0000E+00  0.0000E+00  0.0000E+00  0.0000E+00  0.0000E+00  0.0000E+00  0.0000E+00  0.0000E+00  0.0000E+00  0.0000E+00  0.0000E+00  0.0000E+00  0.0000E+00  0.0000E+00  0.0000E+00  0.0000E+00  0.0000E+00  0.0000E+00  0.0000E+00  0.0000E+00  0.0000E+00  0.0000E+00  0.0000E+00  0.0000E+00  0.0000E+00  0.0000E+00  0.0000E+00  0.0000E+00  0.0000E+00
      0.000  0.0000E+00  0.0000E+00  0.0000E+00  0.0000E+00  0.0000E+00  0.0000E+00  0.0000E+00  0.0000E+00  0.0000E+00  0.0000E+00  0.0000E+00  0.0000E+00  0.0000E+00  0.0000E+00  0.0000E+00  0.0000E+00  0.0000E+00  0.0000E+00  0.0000E+00  0.0000E+00  0.0000E+00  0.0000E+00  0.0000E+00  0.0000E+00  0.0000E+00  0.0000E+00  0.0000E+00
    -38.007  0.0000E+00  0.0000E+00  0.0000E+00  0.0000E+00  0.0000E+00  0.0000E+00  0.0000E+00  0.0000E+00  0.0000E+00  0.0000E+00  0.0000E+00  0.0000E+00  0.0000E+00  0.0000E+00  0.0000E+00  0.0000E+00  0.0000E+00  0.0000E+00  0.0000E+00  0.0000E+00  0.0000E+00  0.0000E+00  0.0000E+00  0.0000E+00  0.0000E+00  0.0000E+00  0.0000E+00  0.0000E+00  0.0000E+00  0.0000E+00  0.0000E+00  0.0000E+00  0.0000E+00  0.0000E+00  0.0000E+00  0.0000E+00
      0.000  0.0000E+00  0.0000E+00  0.0000E+00  0.0000E+00  0.0000E+00  0.0000E+00  0.0000E+00  0.0000E+00  0.0000E+00  0.0000E+00  0.0000E+00  0.0000E+00  0.0000E+00  0.0000E+00  0.0000E+00  0.0000E+00  0.0000E+00  0.0000E+00  0.0000E+00  0.0000E+00  0.0000E+00  0.0000E+00  0.0000E+00  0.0000E+00  0.0000E+00  0.0000E+00  0.0000E+00