 running on   16 nodes
 distr:  one band on    1 nodes,   16 groups
 vasp.5.2.11 01Dec10 complex 
 POSCAR found type information on POSCAR  Li Pt Sn Y 
 POSCAR found :  4 types and       4 ions
 LDA part: xc-table for Pade appr. of Perdew
 found WAVECAR, reading the header
  number of k-points has changed, file:   172 present:   360
  trying to continue reading WAVECAR, but it might fail
 WARNING: stress and forces are not correct
 POSCAR, INCAR and KPOINTS ok, starting setup
 WARNING: small aliasing (wrap around) errors must be expected
 FFT: planning ...(           1 )
 reading WAVECAR
 the WAVECAR file was read sucessfully
 charge-density read from file: HgSbO                                   
 magnetization density read from file 1
 magnetization density read from file 2
 magnetization density read from file 3
 entering main loop
       N       E                     dE             d eps       ncg     rms          rms(c)
DAV:   1     0.397285555127E+00    0.39729E+00   -0.16865E+03 50112   0.285E+02
DAV:   2    -0.211108765170E+02   -0.21508E+02   -0.21242E+02 41568   0.900E+01
DAV:   3    -0.222502510641E+02   -0.11394E+01   -0.11376E+01 55216   0.208E+01
DAV:   4    -0.222728752085E+02   -0.22624E-01   -0.22623E-01 41600   0.298E+00
DAV:   5    -0.222739759890E+02   -0.11008E-02   -0.11008E-02 57952   0.648E-01
DAV:   6    -0.222739918574E+02   -0.15868E-04   -0.15868E-04 42096   0.618E-02
DAV:   7    -0.222739921750E+02   -0.31763E-06   -0.31763E-06 55312   0.100E-02
DAV:   8    -0.222739921803E+02   -0.53251E-08   -0.53211E-08 35008   0.129E-03
   1 F= -.22273992E+02 E0= -.22273992E+02  d E =-.212480E-60  mag=     0.0000     0.0000     0.0000
