   2   2   0   0
  0.1137258E+02  0.2833325E-09  0.2833325E-09  0.2833325E-09  0.5000000E-15
  1.000000000000000E-004
  CAR 
 unknown system                          
     33.81567910     -3.02613411  301     10.43594848      1.00000000
     -3.026  0.0000E+00  0.0000E+00  0.0000E+00  0.0000E+00
     -2.903  0.0000E+00  0.0000E+00  0.0000E+00  0.0000E+00
     -2.781  0.0000E+00  0.0000E+00  0.0000E+00  0.0000E+00
     -2.658  0.0000E+00  0.0000E+00  0.0000E+00  0.0000E+00
     -2.535  0.0000E+00  0.0000E+00  0.0000E+00  0.0000E+00
     -2.412  0.0000E+00  0.0000E+00  0.0000E+00  0.0000E+00
     -2.289  0.0000E+00  0.0000E+00  0.0000E+00  0.0000E+00
     -2.166  0.0000E+00  0.0000E+00  0.0000E+00  0.0000E+00
     -2.044  0.0000E+00  0.0000E+00  0.0000E+00  0.0000E+00
     -1.921  0.0000E+00  0.0000E+00  0.0000E+00  0.0000E+00
     -1.798  0.0000E+00  0.0000E+00  0.0000E+00  0.0000E+00
     -1.675  0.0000E+00  0.0000E+00  0.0000E+00  0.0000E+00
     -1.552  0.0000E+00  0.0000E+00  0.0000E+00  0.0000E+00
     -1.430  0.0000E+00  0.0000E+00  0.0000E+00  0.0000E+00
     -1.307  0.0000E+00  0.0000E+00  0.0000E+00  0.0000E+00
     -1.184  0.0000E+00  0.0000E+00  0.0000E+00  0.0000E+00
     -1.061  0.0000E+00  0.0000E+00  0.0000E+00  0.0000E+00
     -0.938  0.1739E-01  0.1739E-01  0.5286E-03  0.5286E-03
     -0.816  0.2943E-01  0.2943E-01  0.3644E-02  0.3644E-02
     -0.693  0.4382E-01  0.4382E-01  0.8169E-02  0.8169E-02
     -0.570  0.4862E-01  0.4862E-01  0.1381E-01  0.1381E-01
     -0.447  0.5634E-01  0.5634E-01  0.2026E-01  0.2026E-01
     -0.324  0.6454E-01  0.6454E-01  0.2768E-01  0.2768E-01
     -0.202  0.6883E-01  0.6883E-01  0.3586E-01  0.3586E-01
     -0.079  0.7390E-01  0.7390E-01  0.4463E-01  0.4463E-01
      0.044  0.7968E-01  0.7968E-01  0.5404E-01  0.5404E-01
      0.167  0.8616E-01  0.8616E-01  0.6422E-01  0.6422E-01
      0.290  0.8993E-01  0.8993E-01  0.7505E-01  0.7505E-01
      0.412  0.9419E-01  0.9419E-01  0.8635E-01  0.8635E-01
      0.535  0.9877E-01  0.9877E-01  0.9819E-01  0.9819E-01
      0.658  0.1038E+00  0.1038E+00  0.1106E+00  0.1106E+00
      0.781  0.1089E+00  0.1089E+00  0.1237E+00  0.1237E+00
      0.904  0.1130E+00  0.1130E+00  0.1373E+00  0.1373E+00
      1.026  0.1171E+00  0.1171E+00  0.1515E+00  0.1515E+00
      1.149  0.1211E+00  0.1211E+00  0.1661E+00  0.1661E+00
      1.272  0.1254E+00  0.1254E+00  0.1812E+00  0.1812E+00
      1.395  0.1300E+00  0.1300E+00  0.1969E+00  0.1969E+00
      1.518  0.1350E+00  0.1350E+00  0.2132E+00  0.2132E+00
      1.640  0.1395E+00  0.1395E+00  0.2300E+00  0.2300E+00
      1.763  0.1435E+00  0.1435E+00  0.2474E+00  0.2474E+00
      1.886  0.1475E+00  0.1475E+00  0.2653E+00  0.2653E+00
      2.009  0.1522E+00  0.1522E+00  0.2837E+00  0.2837E+00
      2.132  0.1571E+00  0.1571E+00  0.3027E+00  0.3027E+00
      2.255  0.1621E+00  0.1621E+00  0.3223E+00  0.3223E+00
      2.377  0.1673E+00  0.1673E+00  0.3425E+00  0.3425E+00
      2.500  0.1724E+00  0.1724E+00  0.3633E+00  0.3633E+00
      2.623  0.1783E+00  0.1783E+00  0.3849E+00  0.3849E+00
      2.746  0.1847E+00  0.1847E+00  0.4071E+00  0.4071E+00
      2.869  0.1917E+00  0.1917E+00  0.4303E+00  0.4303E+00
      2.991  0.1993E+00  0.1993E+00  0.4543E+00  0.4543E+00
      3.114  0.2076E+00  0.2076E+00  0.4792E+00  0.4792E+00
      3.237  0.2179E+00  0.2179E+00  0.5053E+00  0.5053E+00
      3.360  0.2292E+00  0.2292E+00  0.5328E+00  0.5328E+00
      3.483  0.2335E+00  0.2335E+00  0.5611E+00  0.5611E+00
      3.605  0.2396E+00  0.2396E+00  0.5902E+00  0.5902E+00
      3.728  0.2466E+00  0.2466E+00  0.6201E+00  0.6201E+00
      3.851  0.2548E+00  0.2548E+00  0.6508E+00  0.6508E+00
      3.974  0.2660E+00  0.2660E+00  0.6828E+00  0.6828E+00
      4.097  0.2767E+00  0.2767E+00  0.7161E+00  0.7161E+00
      4.219  0.2844E+00  0.2844E+00  0.7506E+00  0.7506E+00
      4.342  0.3024E+00  0.3024E+00  0.7863E+00  0.7863E+00
      4.465  0.3180E+00  0.3180E+00  0.8244E+00  0.8244E+00
      4.588  0.3294E+00  0.3294E+00  0.8641E+00  0.8641E+00
      4.711  0.3551E+00  0.3551E+00  0.9061E+00  0.9061E+00
      4.833  0.3792E+00  0.3792E+00  0.9513E+00  0.9513E+00
      4.956  0.3265E+00  0.3265E+00  0.9940E+00  0.9940E+00
      5.079  0.3115E+00  0.3115E+00  0.1033E+01  0.1033E+01
      5.202  0.3083E+00  0.3083E+00  0.1071E+01  0.1071E+01
      5.325  0.3124E+00  0.3124E+00  0.1109E+01  0.1109E+01
      5.447  0.3193E+00  0.3193E+00  0.1148E+01  0.1148E+01
      5.570  0.3310E+00  0.3310E+00  0.1188E+01  0.1188E+01
      5.693  0.3508E+00  0.3508E+00  0.1229E+01  0.1229E+01
      5.816  0.3820E+00  0.3820E+00  0.1274E+01  0.1274E+01
      5.939  0.4146E+00  0.4146E+00  0.1323E+01  0.1323E+01
      6.062  0.4836E+00  0.4836E+00  0.1378E+01  0.1378E+01
      6.184  0.8643E+00  0.8643E+00  0.1461E+01  0.1461E+01
      6.307  0.1084E+01  0.1084E+01  0.1587E+01  0.1587E+01
      6.430  0.9413E+00  0.9413E+00  0.1713E+01  0.1713E+01
      6.553  0.7995E+00  0.7995E+00  0.1822E+01  0.1822E+01
      6.676  0.7190E+00  0.7190E+00  0.1910E+01  0.1910E+01
      6.798  0.7840E+00  0.7840E+00  0.2002E+01  0.2002E+01
      6.921  0.1215E+01  0.1215E+01  0.2116E+01  0.2116E+01
      7.044  0.1204E+01  0.1204E+01  0.2269E+01  0.2269E+01
      7.167  0.1794E+01  0.1794E+01  0.2469E+01  0.2469E+01
      7.290  0.1466E+01  0.1466E+01  0.2660E+01  0.2660E+01
      7.412  0.1371E+01  0.1371E+01  0.2829E+01  0.2829E+01
      7.535  0.9685E+00  0.9684E+00  0.2985E+01  0.2985E+01
      7.658  0.3581E+00  0.3582E+00  0.3048E+01  0.3048E+01
      7.781  0.1785E+01  0.1785E+01  0.3193E+01  0.3193E+01
      7.904  0.2155E+01  0.2155E+01  0.3447E+01  0.3447E+01
      8.026  0.1621E+01  0.1621E+01  0.3684E+01  0.3684E+01
      8.149  0.2233E+01  0.2233E+01  0.3897E+01  0.3897E+01
      8.272  0.4415E+01  0.4415E+01  0.4339E+01  0.4339E+01
      8.395  0.2896E+01  0.2896E+01  0.4811E+01  0.4811E+01
      8.518  0.2588E+01  0.2588E+01  0.5152E+01  0.5152E+01
      8.640  0.2027E+01  0.2027E+01  0.5432E+01  0.5432E+01
      8.763  0.1445E+01  0.1445E+01  0.5663E+01  0.5663E+01
      8.886  0.4413E+00  0.4413E+00  0.5768E+01  0.5768E+01
      9.009  0.3629E+00  0.3629E+00  0.5817E+01  0.5817E+01
      9.132  0.3117E+00  0.3117E+00  0.5858E+01  0.5858E+01
      9.254  0.2635E+00  0.2635E+00  0.5896E+01  0.5896E+01
      9.377  0.1783E+00  0.1783E+00  0.5920E+01  0.5920E+01
      9.500  0.2464E+00  0.2465E+00  0.5947E+01  0.5947E+01
      9.623  0.3293E+00  0.3293E+00  0.5981E+01  0.5981E+01
      9.746  0.1331E+01  0.1331E+01  0.6052E+01  0.6052E+01
      9.869  0.7987E+00  0.7987E+00  0.6190E+01  0.6190E+01
      9.991  0.6642E+00  0.6642E+00  0.6278E+01  0.6278E+01
     10.114  0.5513E+00  0.5513E+00  0.6353E+01  0.6353E+01
     10.237  0.4632E+00  0.4632E+00  0.6415E+01  0.6415E+01
     10.360  0.4175E+00  0.4175E+00  0.6469E+01  0.6469E+01
     10.483  0.3861E+00  0.3861E+00  0.6518E+01  0.6518E+01
     10.605  0.3523E+00  0.3523E+00  0.6564E+01  0.6564E+01
     10.728  0.3241E+00  0.3241E+00  0.6605E+01  0.6605E+01
     10.851  0.3007E+00  0.3007E+00  0.6643E+01  0.6643E+01
     10.974  0.2742E+00  0.2742E+00  0.6678E+01  0.6678E+01
     11.097  0.2552E+00  0.2552E+00  0.6711E+01  0.6711E+01
     11.219  0.2383E+00  0.2383E+00  0.6741E+01  0.6741E+01
     11.342  0.2235E+00  0.2235E+00  0.6770E+01  0.6770E+01
     11.465  0.2060E+00  0.2060E+00  0.6796E+01  0.6796E+01
     11.588  0.1930E+00  0.1930E+00  0.6820E+01  0.6820E+01
     11.711  0.1777E+00  0.1777E+00  0.6844E+01  0.6844E+01
     11.833  0.1497E+00  0.1497E+00  0.6863E+01  0.6863E+01
     11.956  0.1301E+00  0.1301E+00  0.6881E+01  0.6881E+01
     12.079  0.1324E+00  0.1324E+00  0.6897E+01  0.6897E+01
     12.202  0.1545E+00  0.1545E+00  0.6914E+01  0.6914E+01
     12.325  0.1780E+00  0.1780E+00  0.6936E+01  0.6936E+01
     12.447  0.1943E+00  0.1943E+00  0.6958E+01  0.6958E+01
     12.570  0.2222E+00  0.2222E+00  0.6984E+01  0.6984E+01
     12.693  0.2883E+00  0.2883E+00  0.7014E+01  0.7014E+01
     12.816  0.3488E+00  0.3488E+00  0.7055E+01  0.7055E+01
     12.939  0.3686E+00  0.3686E+00  0.7098E+01  0.7098E+01
     13.061  0.4011E+00  0.4011E+00  0.7147E+01  0.7147E+01
     13.184  0.4113E+00  0.4113E+00  0.7196E+01  0.7196E+01
     13.307  0.4473E+00  0.4473E+00  0.7249E+01  0.7249E+01
     13.430  0.4326E+00  0.4326E+00  0.7304E+01  0.7304E+01
     13.553  0.4131E+00  0.4131E+00  0.7356E+01  0.7356E+01
     13.675  0.3936E+00  0.3936E+00  0.7405E+01  0.7405E+01
     13.798  0.3894E+00  0.3894E+00  0.7453E+01  0.7453E+01
     13.921  0.4179E+00  0.4179E+00  0.7503E+01  0.7503E+01
     14.044  0.3705E+00  0.3705E+00  0.7552E+01  0.7552E+01
     14.167  0.3667E+00  0.3667E+00  0.7597E+01  0.7597E+01
     14.290  0.3972E+00  0.3972E+00  0.7644E+01  0.7644E+01
     14.412  0.3696E+00  0.3696E+00  0.7692E+01  0.7692E+01
     14.535  0.3660E+00  0.3660E+00  0.7737E+01  0.7737E+01
     14.658  0.3706E+00  0.3706E+00  0.7782E+01  0.7782E+01
     14.781  0.3492E+00  0.3492E+00  0.7827E+01  0.7827E+01
     14.904  0.3693E+00  0.3693E+00  0.7871E+01  0.7871E+01
     15.026  0.3554E+00  0.3554E+00  0.7916E+01  0.7916E+01
     15.149  0.3510E+00  0.3510E+00  0.7959E+01  0.7959E+01
     15.272  0.3872E+00  0.3872E+00  0.8004E+01  0.8004E+01
     15.395  0.3723E+00  0.3723E+00  0.8050E+01  0.8050E+01
     15.518  0.3964E+00  0.3964E+00  0.8097E+01  0.8097E+01
     15.640  0.4495E+00  0.4495E+00  0.8148E+01  0.8148E+01
     15.763  0.4136E+00  0.4136E+00  0.8201E+01  0.8201E+01
     15.886  0.4081E+00  0.4081E+00  0.8251E+01  0.8251E+01
     16.009  0.4260E+00  0.4260E+00  0.8302E+01  0.8302E+01
     16.132  0.4291E+00  0.4291E+00  0.8355E+01  0.8355E+01
     16.254  0.4380E+00  0.4380E+00  0.8408E+01  0.8408E+01
     16.377  0.4391E+00  0.4391E+00  0.8462E+01  0.8462E+01
     16.500  0.4455E+00  0.4455E+00  0.8516E+01  0.8516E+01
     16.623  0.4494E+00  0.4494E+00  0.8571E+01  0.8571E+01
     16.746  0.4370E+00  0.4370E+00  0.8625E+01  0.8625E+01
     16.868  0.4270E+00  0.4270E+00  0.8678E+01  0.8678E+01
     16.991  0.4286E+00  0.4286E+00  0.8731E+01  0.8731E+01
     17.114  0.4259E+00  0.4259E+00  0.8783E+01  0.8783E+01
     17.237  0.4241E+00  0.4241E+00  0.8836E+01  0.8836E+01
     17.360  0.4175E+00  0.4175E+00  0.8887E+01  0.8887E+01
     17.482  0.4103E+00  0.4103E+00  0.8938E+01  0.8938E+01
     17.605  0.4025E+00  0.4025E+00  0.8988E+01  0.8988E+01
     17.728  0.3945E+00  0.3945E+00  0.9037E+01  0.9037E+01
     17.851  0.3870E+00  0.3870E+00  0.9085E+01  0.9085E+01
     17.974  0.3794E+00  0.3794E+00  0.9132E+01  0.9132E+01
     18.097  0.3765E+00  0.3765E+00  0.9178E+01  0.9178E+01
     18.219  0.3779E+00  0.3779E+00  0.9225E+01  0.9225E+01
     18.342  0.3754E+00  0.3754E+00  0.9271E+01  0.9271E+01
     18.465  0.3664E+00  0.3664E+00  0.9317E+01  0.9317E+01
     18.588  0.3554E+00  0.3554E+00  0.9361E+01  0.9361E+01
     18.711  0.3452E+00  0.3452E+00  0.9404E+01  0.9404E+01
     18.833  0.3295E+00  0.3295E+00  0.9446E+01  0.9446E+01
     18.956  0.3307E+00  0.3307E+00  0.9486E+01  0.9486E+01
     19.079  0.3385E+00  0.3385E+00  0.9527E+01  0.9527E+01
     19.202  0.3531E+00  0.3531E+00  0.9569E+01  0.9569E+01
     19.325  0.3709E+00  0.3709E+00  0.9614E+01  0.9614E+01
     19.447  0.3973E+00  0.3973E+00  0.9661E+01  0.9661E+01
     19.570  0.4390E+00  0.4390E+00  0.9712E+01  0.9712E+01
     19.693  0.4915E+00  0.4915E+00  0.9769E+01  0.9769E+01
     19.816  0.5314E+00  0.5314E+00  0.9832E+01  0.9832E+01
     19.939  0.5522E+00  0.5522E+00  0.9899E+01  0.9899E+01
     20.061  0.5499E+00  0.5499E+00  0.9967E+01  0.9967E+01
     20.184  0.5186E+00  0.5186E+00  0.1004E+02  0.1004E+02
     20.307  0.4609E+00  0.4609E+00  0.1010E+02  0.1010E+02
     20.430  0.4263E+00  0.4263E+00  0.1015E+02  0.1015E+02
     20.553  0.4005E+00  0.4005E+00  0.1020E+02  0.1020E+02
     20.675  0.3762E+00  0.3762E+00  0.1025E+02  0.1025E+02
     20.798  0.3504E+00  0.3504E+00  0.1029E+02  0.1029E+02
     20.921  0.3346E+00  0.3346E+00  0.1033E+02  0.1033E+02
     21.044  0.3259E+00  0.3259E+00  0.1037E+02  0.1037E+02
     21.167  0.3208E+00  0.3208E+00  0.1041E+02  0.1041E+02
     21.289  0.3165E+00  0.3165E+00  0.1045E+02  0.1045E+02
     21.412  0.3138E+00  0.3138E+00  0.1049E+02  0.1049E+02
     21.535  0.3139E+00  0.3139E+00  0.1053E+02  0.1053E+02
     21.658  0.3203E+00  0.3203E+00  0.1057E+02  0.1057E+02
     21.781  0.3331E+00  0.3331E+00  0.1061E+02  0.1061E+02
     21.903  0.3392E+00  0.3392E+00  0.1065E+02  0.1065E+02
     22.026  0.3415E+00  0.3415E+00  0.1069E+02  0.1069E+02
     22.149  0.3374E+00  0.3374E+00  0.1073E+02  0.1073E+02
     22.272  0.3402E+00  0.3402E+00  0.1078E+02  0.1078E+02
     22.395  0.3775E+00  0.3775E+00  0.1082E+02  0.1082E+02
     22.518  0.3901E+00  0.3901E+00  0.1087E+02  0.1087E+02
     22.640  0.4033E+00  0.4033E+00  0.1092E+02  0.1092E+02
     22.763  0.4106E+00  0.4106E+00  0.1097E+02  0.1097E+02
     22.886  0.4182E+00  0.4182E+00  0.1102E+02  0.1102E+02
     23.009  0.4283E+00  0.4283E+00  0.1107E+02  0.1107E+02
     23.132  0.4525E+00  0.4525E+00  0.1112E+02  0.1112E+02
     23.254  0.4544E+00  0.4544E+00  0.1118E+02  0.1118E+02
     23.377  0.4401E+00  0.4401E+00  0.1123E+02  0.1123E+02
     23.500  0.4321E+00  0.4321E+00  0.1129E+02  0.1129E+02
     23.623  0.4236E+00  0.4236E+00  0.1134E+02  0.1134E+02
     23.746  0.4137E+00  0.4137E+00  0.1139E+02  0.1139E+02
     23.868  0.4001E+00  0.4001E+00  0.1144E+02  0.1144E+02
     23.991  0.3790E+00  0.3790E+00  0.1149E+02  0.1149E+02
     24.114  0.3499E+00  0.3499E+00  0.1153E+02  0.1153E+02
     24.237  0.3568E+00  0.3568E+00  0.1158E+02  0.1158E+02
     24.360  0.4520E+00  0.4520E+00  0.1162E+02  0.1162E+02
     24.482  0.4884E+00  0.4884E+00  0.1168E+02  0.1168E+02
     24.605  0.5615E+00  0.5615E+00  0.1175E+02  0.1175E+02
     24.728  0.6007E+00  0.6007E+00  0.1182E+02  0.1182E+02
     24.851  0.4663E+00  0.4663E+00  0.1188E+02  0.1188E+02
     24.974  0.4062E+00  0.4062E+00  0.1194E+02  0.1194E+02
     25.096  0.3566E+00  0.3566E+00  0.1198E+02  0.1198E+02
     25.219  0.3289E+00  0.3289E+00  0.1203E+02  0.1203E+02
     25.342  0.3282E+00  0.3282E+00  0.1207E+02  0.1207E+02
     25.465  0.3236E+00  0.3236E+00  0.1211E+02  0.1211E+02
     25.588  0.3142E+00  0.3141E+00  0.1215E+02  0.1215E+02
     25.710  0.3173E+00  0.3171E+00  0.1218E+02  0.1218E+02
     25.833  0.3443E+00  0.3442E+00  0.1222E+02  0.1222E+02
     25.956  0.3804E+00  0.3802E+00  0.1227E+02  0.1227E+02
     26.079  0.4179E+00  0.4179E+00  0.1232E+02  0.1232E+02
     26.202  0.4667E+00  0.4660E+00  0.1237E+02  0.1237E+02
     26.325  0.5149E+00  0.5142E+00  0.1243E+02  0.1243E+02
     26.447  0.5450E+00  0.5432E+00  0.1250E+02  0.1250E+02
     26.570  0.5484E+00  0.5470E+00  0.1256E+02  0.1256E+02
     26.693  0.5446E+00  0.5435E+00  0.1263E+02  0.1263E+02
     26.816  0.5266E+00  0.5260E+00  0.1270E+02  0.1270E+02
     26.939  0.4906E+00  0.4899E+00  0.1276E+02  0.1276E+02
     27.061  0.4338E+00  0.4305E+00  0.1282E+02  0.1282E+02
     27.184  0.3971E+00  0.4114E+00  0.1287E+02  0.1287E+02
     27.307  0.2057E+00  0.2107E+00  0.1291E+02  0.1291E+02
     27.430  0.1494E+00  0.1504E+00  0.1293E+02  0.1293E+02
     27.553  0.1239E+00  0.1245E+00  0.1294E+02  0.1294E+02
     27.675  0.9112E-01  0.9138E-01  0.1296E+02  0.1296E+02
     27.798  0.6665E-01  0.6655E-01  0.1297E+02  0.1297E+02
     27.921  0.4598E-01  0.4538E-01  0.1297E+02  0.1297E+02
     28.044  0.3315E-01  0.3241E-01  0.1298E+02  0.1298E+02
     28.167  0.2433E-01  0.2418E-01  0.1298E+02  0.1298E+02
     28.289  0.1968E-01  0.1954E-01  0.1298E+02  0.1298E+02
     28.412  0.1542E-01  0.1521E-01  0.1299E+02  0.1299E+02
     28.535  0.1133E-01  0.1106E-01  0.1299E+02  0.1299E+02
     28.658  0.8373E-02  0.8269E-02  0.1299E+02  0.1299E+02
     28.781  0.7851E-02  0.7647E-02  0.1299E+02  0.1299E+02
     28.903  0.7380E-02  0.7180E-02  0.1299E+02  0.1299E+02
     29.026  0.6927E-02  0.6736E-02  0.1299E+02  0.1299E+02
     29.149  0.6493E-02  0.6314E-02  0.1299E+02  0.1299E+02
     29.272  0.6077E-02  0.5914E-02  0.1299E+02  0.1299E+02
     29.395  0.5681E-02  0.5537E-02  0.1299E+02  0.1299E+02
     29.517  0.5302E-02  0.5182E-02  0.1299E+02  0.1299E+02
     29.640  0.4937E-02  0.4840E-02  0.1300E+02  0.1300E+02
     29.763  0.4584E-02  0.4510E-02  0.1300E+02  0.1300E+02
     29.886  0.4244E-02  0.4193E-02  0.1300E+02  0.1300E+02
     30.009  0.3996E-02  0.3930E-02  0.1300E+02  0.1300E+02
     30.131  0.4031E-02  0.4083E-02  0.1300E+02  0.1300E+02
     30.254  0.3546E-02  0.3609E-02  0.1300E+02  0.1300E+02
     30.377  0.3085E-02  0.3154E-02  0.1300E+02  0.1300E+02
     30.500  0.2649E-02  0.2719E-02  0.1300E+02  0.1300E+02
     30.623  0.2238E-02  0.2303E-02  0.1300E+02  0.1300E+02
     30.746  0.1851E-02  0.1907E-02  0.1300E+02  0.1300E+02
     30.868  0.1488E-02  0.1531E-02  0.1300E+02  0.1300E+02
     30.991  0.1146E-02  0.1174E-02  0.1300E+02  0.1300E+02
     31.114  0.8301E-03  0.8500E-03  0.1300E+02  0.1300E+02
     31.237  0.5650E-03  0.5785E-03  0.1300E+02  0.1300E+02
     31.360  0.3507E-03  0.3591E-03  0.1300E+02  0.1300E+02
     31.482  0.1873E-03  0.1918E-03  0.1300E+02  0.1300E+02
     31.605  0.7470E-04  0.7649E-04  0.1300E+02  0.1300E+02
     31.728  0.1297E-04  0.1327E-04  0.1300E+02  0.1300E+02
     31.851  0.0000E+00  0.0000E+00  0.1300E+02  0.1300E+02
     31.974  0.0000E+00  0.0000E+00  0.1300E+02  0.1300E+02
     32.096  0.0000E+00  0.0000E+00  0.1300E+02  0.1300E+02
     32.219  0.0000E+00  0.0000E+00  0.1300E+02  0.1300E+02
     32.342  0.0000E+00  0.0000E+00  0.1300E+02  0.1300E+02
     32.465  0.0000E+00  0.0000E+00  0.1300E+02  0.1300E+02
     32.588  0.0000E+00  0.0000E+00  0.1300E+02  0.1300E+02
     32.710  0.0000E+00  0.0000E+00  0.1300E+02  0.1300E+02
     32.833  0.0000E+00  0.0000E+00  0.1300E+02  0.1300E+02
     32.956  0.0000E+00  0.0000E+00  0.1300E+02  0.1300E+02
     33.079  0.0000E+00  0.0000E+00  0.1300E+02  0.1300E+02
     33.202  0.0000E+00  0.0000E+00  0.1300E+02  0.1300E+02
     33.324  0.0000E+00  0.0000E+00  0.1300E+02  0.1300E+02
     33.447  0.0000E+00  0.0000E+00  0.1300E+02  0.1300E+02
     33.570  0.0000E+00  0.0000E+00  0.1300E+02  0.1300E+02
     33.693  0.0000E+00  0.0000E+00  0.1300E+02  0.1300E+02
     33.816  0.0000E+00  0.0000E+00  0.1300E+02  0.1300E+02
