    2    2    1    2
  0.1137258E+02  0.2833325E-09  0.2833325E-09  0.2833325E-09  0.5000000E-15
  1.000000000000000E-004
  CAR 
 unknown system                          
   13  165   13
 
  0.3742002E-15  0.3742002E-15  0.3742002E-15  0.2441406E-03
   1       -1.026133     -1.026134
   2        6.931935      6.931933
   3        6.931935      6.931933
   4        8.754183      8.754179
   5        8.754183      8.754179
   6        8.754183      8.754180
   7       16.110026     16.110022
   8       16.110026     16.110022
   9       16.110026     16.110022
  10       18.810258     18.810257
  11       18.810258     18.810257
  12       24.903664     24.903669
  13       31.815679     31.815670
 
  0.6250000E-01  0.3742002E-15  0.3742002E-15  0.1464844E-02
   1       -0.951645     -0.951646
   2        6.928633      6.928632
   3        6.949971      6.949970
   4        8.720494      8.720490
   5        8.720494      8.720491
   6        8.757827      8.757823
   7       15.306294     15.306291
   8       16.208543     16.208539
   9       16.208543     16.208539
  10       18.811447     18.811445
  11       19.546070     19.546068
  12       25.152890     25.152894
  13       30.962816     30.965776
 
  0.1250000E+00  0.3742002E-15  0.3742002E-15  0.1464844E-02
   1       -0.729037     -0.729038
   2        6.904977      6.904976
   3        7.001862      7.001860
   4        8.627460      8.627456
   5        8.627460      8.627456
   6        8.768254      8.768250
   7       13.896081     13.896078
   8       16.496586     16.496582
   9       16.496586     16.496582
  10       18.814960     18.814958
  11       20.721157     20.721155
  12       25.939685     25.939685
  13       29.455230     29.455153
 
  0.1875000E+00  0.3742002E-15  0.3742002E-15  0.1464844E-02
   1       -0.361058     -0.361060
   2        6.815268      6.815267
   3        7.080894      7.080893
   4        8.495146      8.495142
   5        8.495146      8.495142
   6        8.783861      8.783858
   7       12.501776     12.501773
   8       16.955064     16.955060
   9       16.955064     16.955060
  10       18.820514     18.820512
  11       21.719004     21.719004
  12       27.283455     27.286496
  13       27.897065     27.897061
 
  0.2500000E+00  0.3742002E-15  0.3742002E-15  0.1464844E-02
   1        0.147503      0.147502
   2        6.573879      6.573877
   3        7.176382      7.176380
   4        8.348354      8.348350
   5        8.348354      8.348350
   6        8.802361      8.802357
   7       11.319132     11.319128
   8       17.560570     17.560566
   9       17.560570     17.560566
  10       18.827604     18.827602
  11       22.519508     22.519508
  12       26.395573     26.395569
  13       26.395625     26.395615
 
  0.3125000E+00  0.3742002E-15  0.3742002E-15  0.1464844E-02
   1        0.789442      0.789440
   2        6.078239      6.078238
   3        7.274475      7.274473
   4        8.210154      8.210150
   5        8.210154      8.210150
   6        8.820936      8.820932
   7       10.476653     10.476650
   8       18.290642     18.290638
   9       18.290642     18.290638
  10       18.835387     18.835385
  11       23.237527     23.237528
  12       24.980163     24.980160
  13       24.980167     24.980161
 
  0.3750000E+00  0.3742002E-15  0.3742002E-15  0.1464844E-02
   1        1.554164      1.554163
   2        5.307539      5.307537
   3        7.359789      7.359787
   4        8.098806      8.098801
   5        8.098806      8.098802
   6        8.836718      8.836714
   7       10.000049     10.000046
   8       18.842630     18.842628
   9       19.123588     19.123585
  10       19.123588     19.123585
  11       23.665702     23.665699
  12       23.665703     23.665699
  13       23.960355     23.960354
 
  0.4375000E+00  0.3742002E-15  0.3742002E-15  0.1464844E-02
   1        2.425583      2.425581
   2        4.365921      4.365920
   3        7.417962      7.417961
   4        8.027085      8.027080
   5        8.027085      8.027081
   6        8.847326      8.847322
   7        9.788345      9.788342
   8       18.847863     18.847860
   9       20.020429     20.020425
  10       20.020429     20.020425
  11       22.483391     22.483387
  12       22.483391     22.483387
  13       24.713553     24.713342
 
  0.5000000E+00  0.3742002E-15  0.3742002E-15  0.7324219E-03
   1        3.359949      3.359947
   2        3.396114      3.396113
   3        7.438621      7.438619
   4        8.002373      8.002369
   5        8.002373      8.002369
   6        8.851056      8.851053
   7        9.731276      9.731273
   8       18.849779     18.849779
   9       20.657053     20.657049
  10       20.657053     20.657049
  11       21.752184     21.752181
  12       21.752184     21.752181
  13       25.238404     25.238542
 
  0.6250000E-01  0.6250000E-01  0.3742002E-15  0.2929688E-02
   1       -0.877303     -0.877304
   2        6.937949      6.937948
   3        6.956691      6.956689
   4        8.685164      8.685160
   5        8.716267      8.716263
   6        8.732478      8.732474
   7       15.234114     15.234111
   8       15.571423     15.571419
   9       16.306591     16.306587
  10       19.191481     19.191480
  11       19.923101     19.923099
  12       25.384662     25.384666
  13       30.068771     30.098638
 
  0.1250000E+00  0.6250000E-01  0.3742002E-15  0.5859375E-02
   1       -0.655217     -0.655219
   2        6.922457      6.922455
   3        7.004176      7.004174
   4        8.587809      8.587806
   5        8.629845      8.629841
   6        8.737384      8.737381
   7       13.953553     13.953550
   8       15.700518     15.700514
   9       16.593348     16.593344
  10       19.331349     19.331347
  11       21.034118     21.034116
  12       26.121810     26.121814
  13       28.543088     28.539870
 
  0.1875000E+00  0.6250000E-01  0.3742002E-15  0.5859375E-02
   1       -0.288150     -0.288151
   2        6.838471      6.838469
   3        7.083268      7.083267
   4        8.451412      8.451408
   5        8.498874      8.498870
   6        8.753191      8.753187
   7       12.565069     12.565066
   8       16.093425     16.093422
   9       17.050045     17.050041
  10       19.396051     19.396049
  11       22.076871     22.076870
  12       27.007083     27.006005
  13       27.408424     27.408187
 
  0.2500000E+00  0.6250000E-01  0.3742002E-15  0.5859375E-02
   1        0.219066      0.219064
   2        6.602790      6.602789
   3        7.179945      7.179944
   4        8.305770      8.305766
   5        8.353122      8.353118
   6        8.772209      8.772205
   7       11.376300     11.376298
   8       16.605322     16.605319
   9       17.653613     17.653609
  10       19.467058     19.467056
  11       22.923205     22.923206
  12       25.574509     25.574507
  13       26.445275     26.445272
 
  0.3125000E+00  0.6250000E-01  0.3742002E-15  0.5859375E-02
   1        0.859102      0.859100
   2        6.113660      6.113658
   3        7.280474      7.280473
   4        8.176645      8.176641
   5        8.215707      8.215703
   6        8.791356      8.791352
   7       10.516936     10.516933
   8       17.192853     17.192851
   9       18.382028     18.382024
  10       19.557299     19.557296
  11       23.665893     23.665894
  12       24.274877     24.274876
  13       25.032905     25.032914
 
  0.3750000E+00  0.6250000E-01  0.3742002E-15  0.5859375E-02
   1        1.621200      1.621199
   2        5.351592      5.351591
   3        7.369693      7.369692
   4        8.075802      8.075799
   5        8.104908      8.104904
   6        8.807675      8.807671
   7       10.018929     10.018926
   8       17.792964     17.792962
   9       19.214534     19.214531
  10       19.679845     19.679842
  11       23.110756     23.110753
  12       23.719790     23.719787
  13       24.425050     24.425035
 
  0.4375000E+00  0.6250000E-01  0.3742002E-15  0.5859375E-02
   1        2.488935      2.488933
   2        4.418623      4.418622
   3        7.432335      7.432333
   4        8.009053      8.009049
   5        8.033487      8.033483
   6        8.818606      8.818602
   7        9.792013      9.792011
   8       18.282421     18.282419
   9       19.852553     19.852550
  10       20.115909     20.115906
  11       22.209507     22.209505
  12       22.533475     22.533471
  13       25.183584     25.183492
 
  0.5000000E+00  0.6250000E-01  0.3742002E-15  0.2929688E-02
   1        3.404015      3.404013
   2        3.469902      3.469901
   3        7.455170      7.455168
   4        7.985139      7.985135
   5        8.008872      8.008868
   6        8.822441      8.822437
   7        9.729839      9.729836
   8       18.476731     18.476729
   9       19.977674     19.977670
  10       20.773596     20.773592
  11       21.781378     21.781375
  12       21.812468     21.812466
  13       25.733784     25.735586
 
  0.1250000E+00  0.1250000E+00  0.3742002E-15  0.2929688E-02
   1       -0.434719     -0.434721
   2        6.958306      6.958304
   3        7.011524      7.011522
   4        8.479899      8.479895
   5        8.618177      8.618173
   6        8.670568      8.670564
   7       13.865767     13.865764
   8       14.607003     14.607000
   9       16.876586     16.876582
  10       19.772588     19.772586
  11       21.995360     21.995358
  12       26.688766     26.688471
  13       27.057336     27.056871
 
  0.1875000E+00  0.1250000E+00  0.3742002E-15  0.5859375E-02
   1       -0.070436     -0.070437
   2        6.905100      6.905099
   3        7.077215      7.077213
   4        8.334254      8.334250
   5        8.507557      8.507554
   6        8.670051      8.670047
   7       12.714216     12.714214
   8       14.726878     14.726876
   9       17.328276     17.328272
  10       19.939409     19.939408
  11       23.108621     23.108619
  12       25.536754     25.536751
  13       27.801368     27.802218
 
  0.2500000E+00  0.1250000E+00  0.3742002E-15  0.5859375E-02
   1        0.432596      0.432594
   2        6.685323      6.685322
   3        7.179019      7.179017
   4        8.193861      8.193857
   5        8.366298      8.366294
   6        8.688739      8.688735
   7       11.527347     11.527344
   8       15.188453     15.188450
   9       17.926171     17.926167
  10       19.994440     19.994438
  11       23.983548     23.983547
  12       24.270736     24.270734
  13       26.591362     26.591353
 
  0.3125000E+00  0.1250000E+00  0.3742002E-15  0.5859375E-02
   1        1.066679      1.066677
   2        6.214636      6.214635
   3        7.289485      7.289484
   4        8.089386      8.089382
   5        8.231480      8.231476
   6        8.708987      8.708983
   7       10.626376     10.626372
   8       15.767422     15.767420
   9       18.649293     18.649289
  10       19.912547     19.912545
  11       23.101457     23.101457
  12       24.861629     24.861638
  13       25.189859     25.189858
 
  0.3750000E+00  0.1250000E+00  0.3742002E-15  0.5859375E-02
   1        1.820409      1.820408
   2        5.479409      5.479407
   3        7.392748      7.392746
   4        8.014690      8.014686
   5        8.122302      8.122298
   6        8.726499      8.726495
   7       10.070839     10.070836
   8       16.428725     16.428722
   9       19.479243     19.479240
  10       19.580542     19.580541
  11       22.404258     22.404260
  12       23.883091     23.883089
  13       25.561998     25.562000
 
  0.4375000E+00  0.1250000E+00  0.3742002E-15  0.5859375E-02
   1        2.675904      2.675903
   2        4.574587      4.574585
   3        7.471141      7.471139
   4        7.958877      7.958873
   5        8.051774      8.051770
   6        8.738312      8.738308
   7        9.801246      9.801243
   8       17.126800     17.126798
   9       18.993870     18.993868
  10       20.390888     20.390884
  11       22.100984     22.100983
  12       22.688805     22.688801
  13       26.140672     26.141451
 
  0.5000000E+00  0.1250000E+00  0.3742002E-15  0.2929688E-02
   1        3.533326      3.533323
   2        3.689381      3.689380
   3        7.501993      7.501992
   4        7.935588      7.935584
   5        8.027449      8.027445
   6        8.742483      8.742479
   7        9.724474      9.724471
   8       17.585303     17.585301
   9       18.548424     18.548422
  10       21.116848     21.116843
  11       21.869203     21.869200
  12       22.030972     22.030971
  13       26.371939     26.373516
 
  0.1875000E+00  0.1875000E+00  0.3742002E-15  0.2929688E-02
   1        0.288948      0.288946
   2        6.998887      6.998885
   3        7.023694      7.023693
   4        8.183815      8.183810
   5        8.494348      8.494344
   6        8.577536      8.577532
   7       12.600206     12.600203
   8       13.772976     13.772973
   9       17.772465     17.772461
  10       20.144148     20.144146
  11       24.128902     24.128901
  12       24.404183     24.404182
  13       28.207741     28.172320
 
  0.2500000E+00  0.1875000E+00  0.3742002E-15  0.5859375E-02
   1        0.784502      0.784500
   2        6.805343      6.805341
   3        7.135359      7.135358
   4        8.057789      8.057786
   5        8.383318      8.383314
   6        8.571668      8.571664
   7       11.683649     11.683646
   8       13.907434     13.907432
   9       18.361154     18.361150
  10       20.062781     20.062779
  11       23.013127     23.013126
  12       25.541076     25.540949
  13       26.815976     26.815893
 
  0.3125000E+00  0.1875000E+00  0.3742002E-15  0.5859375E-02
   1        1.407782      1.407780
   2        6.362425      6.362423
   3        7.272327      7.272325
   4        7.986485      7.986481
   5        8.254730      8.254726
   6        8.590714      8.590709
   7       10.766887     10.766884
   8       14.421206     14.421203
   9       19.074246     19.074242
  10       19.560373     19.560370
  11       22.419489     22.419489
  12       25.444085     25.444082
  13       26.355352     26.355316
 
  0.3750000E+00  0.1875000E+00  0.3742002E-15  0.5859375E-02
   1        2.145783      2.145781
   2        5.676595      5.676594
   3        7.406388      7.406386
   4        7.940296      7.940293
   5        8.148425      8.148421
   6        8.609291      8.609287
   7       10.140594     10.140591
   8       15.077774     15.077772
   9       18.693141     18.693139
  10       19.895682     19.895679
  11       22.304497     22.304497
  12       24.157315     24.157312
  13       26.688961     26.688945
 
  0.4375000E+00  0.1875000E+00  0.3742002E-15  0.5859375E-02
   1        2.976584      2.976583
   2        4.827012      4.827011
   3        7.519114      7.519113
   4        7.889932      7.889928
   5        8.079316      8.079311
   6        8.622125      8.622121
   7        9.810338      9.810335
   8       15.838346     15.838344
   9       17.722472     17.722469
  10       20.811814     20.811811
  11       22.375359     22.375359
  12       22.965073     22.965070
  13       26.490615     26.490588
 
  0.5000000E+00  0.1875000E+00  0.3742002E-15  0.2929688E-02
   1        3.738679      3.738677
   2        4.048512      4.048511
   3        7.570445      7.570443
   4        7.859540      7.859536
   5        8.055420      8.055416
   6        8.626682      8.626678
   7        9.711602      9.711599
   8       16.514418     16.514416
   9       16.965793     16.965791
  10       21.669482     21.669478
  11       22.015902     22.015899
  12       22.424119     22.424118
  13       26.346200     26.346203
 
  0.2500000E+00  0.2500000E+00  0.3742002E-15  0.2929688E-02
   1        1.268456      1.268454
   2        6.848917      6.848915
   3        7.066532      7.066531
   4        7.959219      7.959215
   5        8.376748      8.376744
   6        8.467277      8.467273
   7       11.515430     11.515428
   8       13.204874     13.204871
   9       18.936971     18.936968
  10       19.561882     19.561880
  11       22.412336     22.412336
  12       26.860773     26.864763
  13       26.937783     26.960395
 
  0.3125000E+00  0.2500000E+00  0.3742002E-15  0.5859375E-02
   1        1.874324      1.874322
   2        6.505250      6.505248
   3        7.199186      7.199185
   4        7.918532      7.918529
   5        8.280108      8.280105
   6        8.459780      8.459776
   7       10.837760     10.837756
   8       13.353531     13.353528
   9       18.590588     18.590586
  10       19.633121     19.633118
  11       22.385592     22.385592
  12       25.761094     25.761106
  13       27.545966     27.553881
 
  0.3750000E+00  0.2500000E+00  0.3742002E-15  0.5859375E-02
   1        2.585956      2.585954
   2        5.912650      5.912648
   3        7.374674      7.374672
   4        7.891022      7.891019
   5        8.179236      8.179232
   6        8.477114      8.477110
   7       10.193788     10.193785
   8       13.885295     13.885293
   9       17.488024     17.488022
  10       20.433388     20.433385
  11       22.608110     22.608111
  12       24.537913     24.537910
  13       27.057810     27.057406
 
  0.4375000E+00  0.2500000E+00  0.3742002E-15  0.5859375E-02
   1        3.371790      3.371788
   2        5.163025      5.163024
   3        7.541232      7.541230
   4        7.832228      7.832225
   5        8.112063      8.112059
   6        8.490678      8.490675
   7        9.807113      9.807110
   8       14.598409     14.598407
   9       16.421681     16.421679
  10       21.326173     21.326170
  11       22.862343     22.862343
  12       23.387177     23.387173
  13       26.527204     26.527205
 
  0.5000000E+00  0.2500000E+00  0.3742002E-15  0.2929688E-02
   1        4.002948      4.002945
   2        4.535833      4.535832
   3        7.645586      7.645584
   4        7.765341      7.765338
   5        8.088711      8.088707
   6        8.495614      8.495610
   7        9.684104      9.684101
   8       15.440947     15.440945
   9       15.459272     15.459270
  10       22.220161     22.220158
  11       22.407221     22.407217
  12       22.977872     22.977872
  13       26.310106     26.310108
 
  0.3125000E+00  0.3125000E+00  0.3742002E-15  0.2929688E-02
   1        2.453117      2.453115
   2        6.477956      6.477953
   3        7.164969      7.164967
   4        7.897846      7.897844
   5        8.284090      8.284086
   6        8.356564      8.356560
   7       10.625877     10.625874
   8       12.862847     12.862845
   9       17.421456     17.421454
  10       20.301994     20.301991
  11       22.679215     22.679216
  12       25.836021     25.836094
  13       26.850577     26.817028
 
  0.3750000E+00  0.3125000E+00  0.3742002E-15  0.5859375E-02
   1        3.121151      3.121149
   2        6.121699      6.121697
   3        7.300099      7.300097
   4        7.880583      7.880581
   5        8.209281      8.209277
   6        8.351687      8.351683
   7       10.154731     10.154728
   8       13.014009     13.014007
   9       16.276737     16.276735
  10       21.058781     21.058778
  11       23.092539     23.092540
  12       24.984751     24.984742
  13       27.014939     27.025387
 
  0.4375000E+00  0.3125000E+00  0.3742002E-15  0.5859375E-02
   1        3.827608      3.827605
   2        5.560035      5.560033
   3        7.497707      7.497705
   4        7.817163      7.817161
   5        8.145078      8.145074
   6        8.364735      8.364731
   7        9.767369      9.767366
   8       13.525303     13.525301
   9       15.242129     15.242127
  10       21.872351     21.872348
  11       23.491687     23.491688
  12       23.975093     23.975089
  13       26.509220     26.510095
 
  0.5000000E+00  0.3125000E+00  0.3742002E-15  0.2929688E-02
   1        4.298069      4.298066
   2        5.130935      5.130934
   3        7.662859      7.662856
   4        7.704218      7.704216
   5        8.122305      8.122301
   6        8.369919      8.369915
   7        9.629288      9.629285
   8       14.074798     14.074796
   9       14.525472     14.525470
  10       22.474986     22.474982
  11       23.301254     23.301249
  12       23.676063     23.676063
  13       26.268323     26.268309
 
  0.3750000E+00  0.3750000E+00  0.3742002E-15  0.2929688E-02
   1        3.715041      3.715039
   2        6.169499      6.169497
   3        7.287866      7.287865
   4        7.869281      7.869279
   5        8.221942      8.221938
   6        8.262392      8.262388
   7        9.940809      9.940806
   8       12.639343     12.639341
   9       15.176226     15.176224
  10       21.734988     21.734985
  11       23.663620     23.663621
  12       25.210874     25.210953
  13       26.339868     26.338965
 
  0.4375000E+00  0.3750000E+00  0.3742002E-15  0.5859375E-02
   1        4.285471      4.285468
   2        5.974941      5.974939
   3        7.422195      7.422193
   4        7.805480      7.805478
   5        8.173143      8.173139
   6        8.261994      8.261990
   7        9.656443      9.656440
   8       12.740724     12.740722
   9       14.264721     14.264719
  10       22.394359     22.394356
  11       24.220334     24.220336
  12       24.700291     24.700295
  13       26.471081     26.462901
 
  0.5000000E+00  0.3750000E+00  0.3742002E-15  0.2929688E-02
   1        4.581123      4.581119
   2        5.795487      5.795486
   3        7.564654      7.564651
   4        7.709490      7.709488
   5        8.151034      8.151030
   6        8.267173      8.267169
   7        9.530458      9.530455
   8       12.964316     12.964314
   9       13.787910     13.787908
  10       22.758052     22.758049
  11       24.313066     24.313063
  12       24.502066     24.502066
  13       26.228454     26.228609
 
  0.4375000E+00  0.4375000E+00  0.3742002E-15  0.2929688E-02
   1        4.649205      4.649201
   2        6.315686      6.315685
   3        7.406384      7.406382
   4        7.727816      7.727814
   5        8.187837      8.187833
   6        8.199333      8.199329
   7        9.486967      9.486964
   8       12.332351     12.332349
   9       13.575522     13.575520
  10       22.823962     22.823959
  11       24.973442     24.972975
  12       25.322252     25.322035
  13       26.070635     26.061278
 
  0.5000000E+00  0.4375000E+00  0.3742002E-15  0.2929688E-02
   1        4.793405      4.793401
   2        6.446498      6.446497
   3        7.489173      7.489172
   4        7.606961      7.606959
   5        8.170368      8.170364
   6        8.200328      8.200324
   7        9.395967      9.395964
   8       12.231793     12.231791
   9       13.311124     13.311122
  10       23.010634     23.010631
  11       25.352763     25.352926
  12       25.429080     25.429164
  13       26.195505     26.197138
 
  0.5000000E+00  0.5000000E+00  0.3742002E-15  0.7324219E-03
   1        4.873634      4.873630
   2        6.815863      6.815862
   3        7.459886      7.459885
   4        7.459886      7.459885
   5        8.177177      8.177173
   6        8.177177      8.177173
   7        9.322111      9.322107
   8       11.978202     11.978200
   9       13.145560     13.145558
  10       23.120426     23.120423
  11       25.968889     25.968949
  12       25.971421     25.970502
  13       26.187443     26.187477
 
  0.6250000E-01  0.6250000E-01  0.6250000E-01  0.1953125E-02
   1       -0.803151     -0.803152
   2        6.955968      6.955967
   3        6.955969      6.955967
   4        8.673092      8.673088
   5        8.697331      8.697327
   6        8.697331      8.697327
   7       15.318904     15.318901
   8       15.318904     15.318901
   9       15.871145     15.871141
  10       19.937109     19.937107
  11       19.937109     19.937107
  12       25.603301     25.603306
  13       29.970759     29.974132
 
  0.1250000E+00  0.6250000E-01  0.6250000E-01  0.5859375E-02
   1       -0.581577     -0.581578
   2        6.939751      6.939750
   3        7.007877      7.007876
   4        8.581294      8.581290
   5        8.600189      8.600185
   6        8.704419      8.704415
   7       14.014846     14.014843
   8       15.564007     15.564004
   9       16.046933     16.046930
  10       19.978158     19.978156
  11       21.195826     21.195824
  12       26.300051     26.300084
  13       28.518087     28.454432
 
  0.1875000E+00  0.6250000E-01  0.6250000E-01  0.5859375E-02
   1       -0.215425     -0.215426
   2        6.860944      6.860942
   3        7.087417      7.087415
   4        8.449228      8.449224
   5        8.461882      8.461878
   6        8.720770      8.720766
   7       12.629895     12.629892
   8       15.945239     15.945236
   9       16.467528     16.467524
  10       20.042393     20.042390
  11       22.315625     22.315624
  12       26.932972     26.934846
  13       27.220079     27.223793
 
  0.2500000E+00  0.6250000E-01  0.6250000E-01  0.5859375E-02
   1        0.290427      0.290425
   2        6.631231      6.631230
   3        7.184647      7.184645
   4        8.307488      8.307484
   5        8.314278      8.314274
   6        8.740502      8.740499
   7       11.435144     11.435141
   8       16.430320     16.430317
   9       17.036810     17.036807
  10       20.119682     20.119680
  11       23.221215     23.221214
  12       25.569192     25.569206
  13       25.712584     25.712610
 
  0.3125000E+00  0.6250000E-01  0.6250000E-01  0.5859375E-02
   1        0.928529      0.928527
   2        6.148785      6.148783
   3        7.286790      7.286788
   4        8.159765      8.159760
   5        8.205318      8.205314
   6        8.760403      8.760399
   7       10.559494     10.559491
   8       16.981597     16.981594
   9       17.731500     17.731497
  10       20.186980     20.186977
  11       23.999068     23.999068
  12       24.306034     24.306032
  13       24.396543     24.396541
 
  0.3750000E+00  0.6250000E-01  0.6250000E-01  0.5859375E-02
   1        1.687942      1.687940
   2        5.395394      5.395392
   3        7.379410      7.379408
   4        8.036649      8.036645
   5        8.128351      8.128347
   6        8.777331      8.777327
   7       10.040016     10.040013
   8       17.548364     17.548361
   9       18.535258     18.535255
  10       20.202123     20.202120
  11       22.961320     22.961318
  12       23.474799     23.474797
  13       24.790848     24.790857
 
  0.4375000E+00  0.6250000E-01  0.6250000E-01  0.5859375E-02
   1        2.551840      2.551838
   2        4.471223      4.471222
   3        7.446873      7.446871
   4        7.952684      7.952679
   5        8.079878      8.079874
   6        8.788697      8.788693
   7        9.797107      9.797104
   8       18.036468     18.036466
   9       19.421964     19.421961
  10       20.131165     20.131161
  11       21.762902     21.762900
  12       22.886126     22.886124
  13       25.565989     25.566000
 
  0.5000000E+00  0.6250000E-01  0.6250000E-01  0.2929688E-02
   1        3.447929      3.447927
   2        3.543303      3.543302
   3        7.472425      7.472423
   4        7.922036      7.922032
   5        8.062778      8.062774
   6        8.792698      8.792694
   7        9.729432      9.729429
   8       18.251885     18.251882
   9       20.063974     20.063970
  10       20.104013     20.104010
  11       20.976600     20.976598
  12       22.687754     22.687751
  13       26.087307     26.087308
 
  0.1250000E+00  0.1250000E+00  0.6250000E-01  0.5859375E-02
   1       -0.361625     -0.361626
   2        6.975630      6.975629
   3        7.018690      7.018688
   4        8.481410      8.481406
   5        8.583571      8.583567
   6        8.631824      8.631820
   7       13.948596     13.948593
   8       14.613336     14.613333
   9       16.152283     16.152280
  10       20.585250     20.585248
  11       22.004112     22.004110
  12       26.855601     26.855775
  13       27.078234     27.077718
 
  0.1875000E+00  0.1250000E+00  0.6250000E-01  0.1171875E-01
   1        0.001712      0.001711
   2        6.925199      6.925198
   3        7.086810      7.086808
   4        8.338401      8.338397
   5        8.466467      8.466463
   6        8.633024      8.633020
   7       12.785892     12.785889
   8       14.757479     14.757476
   9       16.548855     16.548852
  10       20.751393     20.751391
  11       23.152857     23.152855
  12       25.607109     25.607106
  13       27.225226     27.226158
 
  0.2500000E+00  0.1250000E+00  0.6250000E-01  0.1171875E-01
   1        0.503325      0.503323
   2        6.712337      6.712335
   3        7.187053      7.187051
   4        8.199585      8.199581
   5        8.325352      8.325348
   6        8.653130      8.653126
   7       11.591804     11.591801
   8       15.221238     15.221235
   9       17.085308     17.085305
  10       20.764879     20.764876
  11       24.125377     24.125376
  12       24.328582     24.328580
  13       25.846745     25.846742
 
  0.3125000E+00  0.1250000E+00  0.6250000E-01  0.1171875E-01
   1        1.135379      1.135378
   2        6.248901      6.248899
   3        7.296289      7.296288
   4        8.081119      8.081115
   5        8.214869      8.214865
   6        8.674590      8.674586
   7       10.675704     10.675701
   8       15.796792     15.796790
   9       17.730487     17.730484
  10       20.567839     20.567837
  11       23.317751     23.317749
  12       24.372849     24.372846
  13       25.201839     25.201832
 
  0.3750000E+00  0.1250000E+00  0.6250000E-01  0.1171875E-01
   1        1.886235      1.886234
   2        5.522449      5.522447
   3        7.400851      7.400849
   4        7.967421      7.967417
   5        8.158481      8.158477
   6        8.693106      8.693102