Automatically generated mesh
     165
Reciprocal lattice
    0.00000000000000    0.00000000000000    0.00000000000000             1
    0.06250000000000    0.00000000000000    0.00000000000000             6
    0.12500000000000    0.00000000000000    0.00000000000000             6
    0.18750000000000    0.00000000000000    0.00000000000000             6
    0.25000000000000    0.00000000000000    0.00000000000000             6
    0.31250000000000    0.00000000000000    0.00000000000000             6
    0.37500000000000    0.00000000000000    0.00000000000000             6
    0.43750000000000    0.00000000000000    0.00000000000000             6
    0.50000000000000    0.00000000000000    0.00000000000000             3
    0.06250000000000    0.06250000000000    0.00000000000000            12
    0.12500000000000    0.06250000000000    0.00000000000000            24
    0.18750000000000    0.06250000000000    0.00000000000000            24
    0.25000000000000    0.06250000000000    0.00000000000000            24
    0.31250000000000    0.06250000000000    0.00000000000000            24
    0.37500000000000    0.06250000000000    0.00000000000000            24
    0.43750000000000    0.06250000000000    0.00000000000000            24
    0.50000000000000    0.06250000000000    0.00000000000000            12
    0.12500000000000    0.12500000000000    0.00000000000000            12
    0.18750000000000    0.12500000000000    0.00000000000000            24
    0.25000000000000    0.12500000000000    0.00000000000000            24
    0.31250000000000    0.12500000000000    0.00000000000000            24
    0.37500000000000    0.12500000000000    0.00000000000000            24
    0.43750000000000    0.12500000000000    0.00000000000000            24
    0.50000000000000    0.12500000000000    0.00000000000000            12
    0.18750000000000    0.18750000000000    0.00000000000000            12
    0.25000000000000    0.18750000000000    0.00000000000000            24
    0.31250000000000    0.18750000000000    0.00000000000000            24
    0.37500000000000    0.18750000000000    0.00000000000000            24
    0.43750000000000    0.18750000000000    0.00000000000000            24
    0.50000000000000    0.18750000000000    0.00000000000000            12
    0.25000000000000    0.25000000000000    0.00000000000000            12
    0.31250000000000    0.25000000000000    0.00000000000000            24
    0.37500000000000    0.25000000000000    0.00000000000000            24
    0.43750000000000    0.25000000000000    0.00000000000000            24
    0.50000000000000    0.25000000000000    0.00000000000000            12
    0.31250000000000    0.31250000000000    0.00000000000000            12
    0.37500000000000    0.31250000000000    0.00000000000000            24
    0.43750000000000    0.31250000000000    0.00000000000000            24
    0.50000000000000    0.31250000000000    0.00000000000000            12
    0.37500000000000    0.37500000000000    0.00000000000000            12
    0.43750000000000    0.37500000000000    0.00000000000000            24
    0.50000000000000    0.37500000000000    0.00000000000000            12
    0.43750000000000    0.43750000000000    0.00000000000000            12
    0.50000000000000    0.43750000000000    0.00000000000000            12
    0.50000000000000    0.50000000000000    0.00000000000000             3
    0.06250000000000    0.06250000000000    0.06250000000000             8
    0.12500000000000    0.06250000000000    0.06250000000000            24
    0.18750000000000    0.06250000000000    0.06250000000000            24
    0.25000000000000    0.06250000000000    0.06250000000000            24
    0.31250000000000    0.06250000000000    0.06250000000000            24
    0.37500000000000    0.06250000000000    0.06250000000000            24
    0.43750000000000    0.06250000000000    0.06250000000000            24
    0.50000000000000    0.06250000000000    0.06250000000000            12
    0.12500000000000    0.12500000000000    0.06250000000000            24
    0.18750000000000    0.12500000000000    0.06250000000000            48
    0.25000000000000    0.12500000000000    0.06250000000000            48
    0.31250000000000    0.12500000000000    0.06250000000000            48
    0.37500000000000    0.12500000000000    0.06250000000000            48
    0.43750000000000    0.12500000000000    0.06250000000000            48
    0.50000000000000    0.12500000000000    0.06250000000000            24
    0.18750000000000    0.18750000000000    0.06250000000000            24
    0.25000000000000    0.18750000000000    0.06250000000000            48
    0.31250000000000    0.18750000000000    0.06250000000000            48
    0.37500000000000    0.18750000000000    0.06250000000000            48
    0.43750000000000    0.18750000000000    0.06250000000000            48
    0.50000000000000    0.18750000000000    0.06250000000000            24
    0.25000000000000    0.25000000000000    0.06250000000000            24
    0.31250000000000    0.25000000000000    0.06250000000000            48
    0.37500000000000    0.25000000000000    0.06250000000000            48
    0.43750000000000    0.25000000000000    0.06250000000000            48
    0.50000000000000    0.25000000000000    0.06250000000000            24
    0.31250000000000    0.31250000000000    0.06250000000000            24
    0.37500000000000    0.31250000000000    0.06250000000000            48
    0.43750000000000    0.31250000000000    0.06250000000000            48
    0.50000000000000    0.31250000000000    0.06250000000000            24
    0.37500000000000    0.37500000000000    0.06250000000000            24
    0.43750000000000    0.37500000000000    0.06250000000000            48
    0.50000000000000    0.37500000000000    0.06250000000000            24
    0.43750000000000    0.43750000000000    0.06250000000000            24
    0.50000000000000    0.43750000000000    0.06250000000000            24
    0.50000000000000    0.50000000000000    0.06250000000000             6
    0.12500000000000    0.12500000000000    0.12500000000000             8
    0.18750000000000    0.12500000000000    0.12500000000000            24
    0.25000000000000    0.12500000000000    0.12500000000000            24
    0.31250000000000    0.12500000000000    0.12500000000000            24
    0.37500000000000    0.12500000000000    0.12500000000000            24
    0.43750000000000    0.12500000000000    0.12500000000000            24
    0.50000000000000    0.12500000000000    0.12500000000000            12
    0.18750000000000    0.18750000000000    0.12500000000000            24
    0.25000000000000    0.18750000000000    0.12500000000000            48
    0.31250000000000    0.18750000000000    0.12500000000000            48
    0.37500000000000    0.18750000000000    0.12500000000000            48
    0.43750000000000    0.18750000000000    0.12500000000000            48
    0.50000000000000    0.18750000000000    0.12500000000000            24
    0.25000000000000    0.25000000000000    0.12500000000000            24
    0.31250000000000    0.25000000000000    0.12500000000000            48
    0.37500000000000    0.25000000000000    0.12500000000000            48
    0.43750000000000    0.25000000000000    0.12500000000000            48
    0.50000000000000    0.25000000000000    0.12500000000000            24
    0.31250000000000    0.31250000000000    0.12500000000000            24
    0.37500000000000    0.31250000000000    0.12500000000000            48
    0.43750000000000    0.31250000000000    0.12500000000000            48
    0.50000000000000    0.31250000000000    0.12500000000000            24
    0.37500000000000    0.37500000000000    0.12500000000000            24
    0.43750000000000    0.37500000000000    0.12500000000000            48
    0.50000000000000    0.37500000000000    0.12500000000000            24
    0.43750000000000    0.43750000000000    0.12500000000000            24
    0.50000000000000    0.43750000000000    0.12500000000000            24
    0.50000000000000    0.50000000000000    0.12500000000000             6
    0.18750000000000    0.18750000000000    0.18750000000000             8
    0.25000000000000    0.18750000000000    0.18750000000000            24
    0.31250000000000    0.18750000000000    0.18750000000000            24
    0.37500000000000    0.18750000000000    0.18750000000000            24
    0.43750000000000    0.18750000000000    0.18750000000000            24
    0.50000000000000    0.18750000000000    0.18750000000000            12
    0.25000000000000    0.25000000000000    0.18750000000000            24
    0.31250000000000    0.25000000000000    0.18750000000000            48
    0.37500000000000    0.25000000000000    0.18750000000000            48
    0.43750000000000    0.25000000000000    0.18750000000000            48
    0.50000000000000    0.25000000000000    0.18750000000000            24
    0.31250000000000    0.31250000000000    0.18750000000000            24
    0.37500000000000    0.31250000000000    0.18750000000000            48
    0.43750000000000    0.31250000000000    0.18750000000000            48
    0.50000000000000    0.31250000000000    0.18750000000000            24
    0.37500000000000    0.37500000000000    0.18750000000000            24
    0.43750000000000    0.37500000000000    0.18750000000000            48
    0.50000000000000    0.37500000000000    0.18750000000000            24
    0.43750000000000    0.43750000000000    0.18750000000000            24
    0.50000000000000    0.43750000000000    0.18750000000000            24
    0.50000000000000    0.50000000000000    0.18750000000000             6
    0.25000000000000    0.25000000000000    0.25000000000000             8
    0.31250000000000    0.25000000000000    0.25000000000000            24
    0.37500000000000    0.25000000000000    0.25000000000000            24
    0.43750000000000    0.25000000000000    0.25000000000000            24
    0.50000000000000    0.25000000000000    0.25000000000000            12
    0.31250000000000    0.31250000000000    0.25000000000000            24
    0.37500000000000    0.31250000000000    0.25000000000000            48
    0.43750000000000    0.31250000000000    0.25000000000000            48
    0.50000000000000    0.31250000000000    0.25000000000000            24
    0.37500000000000    0.37500000000000    0.25000000000000            24
    0.43750000000000    0.37500000000000    0.25000000000000            48
    0.50000000000000    0.37500000000000    0.25000000000000            24
    0.43750000000000    0.43750000000000    0.25000000000000            24
    0.50000000000000    0.43750000000000    0.25000000000000            24
    0.50000000000000    0.50000000000000    0.25000000000000             6
    0.31250000000000    0.31250000000000    0.31250000000000             8
    0.37500000000000    0.31250000000000    0.31250000000000            24
    0.43750000000000    0.31250000000000    0.31250000000000            24
    0.50000000000000    0.31250000000000    0.31250000000000            12
    0.37500000000000    0.37500000000000    0.31250000000000            24
    0.43750000000000    0.37500000000000    0.31250000000000            48
    0.50000000000000    0.37500000000000    0.31250000000000            24
    0.43750000000000    0.43750000000000    0.31250000000000            24
    0.50000000000000    0.43750000000000    0.31250000000000            24
    0.50000000000000    0.50000000000000    0.31250000000000             6
    0.37500000000000    0.37500000000000    0.37500000000000             8
    0.43750000000000    0.37500000000000    0.37500000000000            24
    0.50000000000000    0.37500000000000    0.37500000000000            12
    0.43750000000000    0.43750000000000    0.37500000000000            24
    0.50000000000000    0.43750000000000    0.37500000000000            24
    0.50000000000000    0.50000000000000    0.37500000000000             6
    0.43750000000000    0.43750000000000    0.43750000000000             8
    0.50000000000000    0.43750000000000    0.43750000000000            12
    0.50000000000000    0.50000000000000    0.43750000000000             6
    0.50000000000000    0.50000000000000    0.50000000000000             1
Tetrahedra
      2034    0.00004069010417
        12         1         2         2        10
        12         2         2        10        10
        12         2        10        10        46
        12         2         3        10        11
        12         2        10        10        11
        12        10        10        11        46
        12         3        10        11        11
        24        10        11        11        47
        24        10        11        46        47
        12         3         4        11        12
        12         3        11        11        12
        12        11        11        12        47
        12         4        11        12        12
        12        11        12        12        48
        12        11        12        47        48
        12         4         5        12        13
        12         4        12        12        13
        12        12        12        13        48
        12         5        12        13        13
        12        12        13        13        49
        12        12        13        48        49
        12         5         6        13        14
        12         5        13        13        14
        12        13        13        14        49
        12         6        13        14        14
        12        13        14        14        50
        12        13        14        49        50
        12         6         7        14        15
        12         6        14        14        15
        12        14        14        15        50
        12         7        14        15        15
        12        14        15        15        51
        12        14        15        50        51
        12         7         8        15        16
        12         7        15        15        16
        12        15        15        16        51
        12         8        15        16        16
        12        15        16        16        52
        12        15        16        51        52
        12         8         9        16        17
        12         8        16        16        17
        12        16        16        17        52
        12         9        16        17        17
        12        16        17        17        53
        12        16        17        52        53
        12        10        11        18        46
        12        11        18        46        47
        12        18        46        47        54
        12        11        12        19        47
        12        11        18        19        47
        12        18        19        47        54
        12        12        19        47        48
        12        19        47        48        55
        12        19        47        54        55
        12        12        13        20        48
        12        12        19        20        48
        12        19        20        48        55
        12        13        20        48        49
        12        20        48        49        56
        12        20        48        55        56
        12        13        14        21        49
        12        13        20        21        49
        12        20        21        49        56
        12        14        21        49        50
        12        21        49        50        57
        12        21        49        56        57
        12        14        15        22        50
        12        14        21        22        50
        12        21        22        50        57
        12        15        22        50        51
        12        22        50        51        58
        12        22        50        57        58
        12        15        16        23        51
        12        15        22        23        51
        12        22        23        51        58
        12        16        23        51        52
        12        23        51        52        59
        12        23        51        58        59
        12        16        17        24        52
        12        16        23        24        52
        12        23        24        52        59
        12        17        24        52        53
        12        24        52        53        60
        12        24        52        59        60
        12        16        17        23        53
        12        17        23        24        53
        12        23        24        53        60
        12        16        23        52        53
        12        23        52        53        59
        12        23        53        59        60
        12        15        16        22        52
        12        16        22        23        52
        12        22        23        52        59
        12        15        22        51        52
        12        22        51        52        58
        12        22        52        58        59
        12        14        15        21        51
        12        15        21        22        51
        12        21        22        51        58
        12        14        21        50        51
        12        21        50        51        57
        12        21        51        57        58
        12        13        14        20        50
        12        14        20        21        50
        12        20        21        50        57
        12        13        20        49        50
        12        20        49        50        56
        12        20        50        56        57
        12        12        13        19        49
        12        13        19        20        49
        12        19        20        49        56
        12        12        19        48        49
        12        19        48        49        55
        12        19        49        55        56
        12        11        12        18        48
        12        12        18        19        48
        12        18        19        48        55
        12        11        18        47        48
        12        18        47        48        54
        12        18        48        54        55
        12        11        11        18        47
        12        11        18        47        54
        12        11        46        47        47
        12        11        47        47        54
        12         2         3        10        46
        12         3        10        11        46
        12         3        11        46        47
        12        18        19        25        54
        12        19        25        54        55
        12        25        54        55        61
        12        19        20        26        55
        12        19        25        26        55
        12        25        26        55        61
        12        20        26        55        56
        12        26        55        56        62
        12        26        55        61        62
        12        20        21        27        56
        12        20        26        27        56
        12        26        27        56        62
        12        21        27        56        57
        12        27        56        57        63
        12        27        56        62        63
        12        21        22        28        57
        12        21        27        28        57
        12        27        28        57        63
        12        22        28        57        58
        12        28        57        58        64
        12        28        57        63        64
        12        22        23        29        58
        12        22        28        29        58
        12        28        29        58        64
        12        23        29        58        59
        12        29        58        59        65
        12        29        58        64        65
        12        23        24        30        59
        12        23        29        30        59
        12        29        30        59        65
        12        24        30        59        60
        12        30        59        60        66
        12        30        59        65        66
        12        23        24        29        60
        12        24        29        30        60
        12        29        30        60        66
        12        23        29        59        60
        12        29        59        60        65
        12        29        60        65        66
        12        22        23        28        59
        12        23        28        29        59
        12        28        29        59        65
        12        22        28        58        59
        12        28        58        59        64
        12        28        59        64        65
        12        21        22        27        58
        12        22        27        28        58
        12        27        28        58        64
        12        21        27        57        58
        12        27        57        58        63
        12        27        58        63        64
        12        20        21        26        57
        12        21        26        27        57
        12        26        27        57        63
        12        20        26        56        57
        12        26        56        57        62
        12        26        57        62        63
        12        19        20        25        56
        12        20        25        26        56
        12        25        26        56        62
        12        19        25        55        56
        12        25        55        56        61
        12        25        56        61        62
        12        18        19        19        55
        12        19        19        25        55
        12        19        25        55        61
        12        18        19        54        55
        12        19        54        55        55
        12        19        55        55        61
        12        11        12        18        54
        12        12        18        19        54
        12        12        19        54        55
        12        11        12        47        54
        12        12        47        48        54
        12        12        48        54        55
        12         3         4        11        47
        12         4        11        12        47
        12         4        12        47        48
        12        25        26        31        61
        12        26        31        61        62
        12        31        61        62        67
        12        26        27        32        62
        12        26        31        32        62
        12        31        32        62        67
        12        27        32        62        63
        12        32        62        63        68
        12        32        62        67        68
        12        27        28        33        63
        12        27        32        33        63
        12        32        33        63        68
        12        28        33        63        64
        12        33        63        64        69
        12        33        63        68        69
        12        28        29        34        64
        12        28        33        34        64
        12        33        34        64        69
        12        29        34        64        65
        12        34        64        65        70
        12        34        64        69        70
        12        29        30        35        65
        12        29        34        35        65
        12        34        35        65        70
        12        30        35        65        66
        12        35        65        66        71
        12        35        65        70        71
        12        29        30        34        66
        12        30        34        35        66
        12        34        35        66        71
        12        29        34        65        66
        12        34        65        66        70
        12        34        66        70        71
        12        28        29        33        65
        12        29        33        34        65
        12        33        34        65        70
        12        28        33        64        65
        12        33        64        65        69
        12        33        65        69        70
        12        27        28        32        64
        12        28        32        33        64
        12        32        33        64        69
        12        27        32        63        64
        12        32        63        64        68
        12        32        64        68        69
        12        26        27        31        63
        12        27        31        32        63
        12        31        32        63        68
        12        26        31        62        63
        12        31        62        63        67
        12        31        63        67        68
        12        25        26        26        62
        12        26        26        31        62
        12        26        31        62        67
        12        25        26        61        62
        12        26        61        62        62
        12        26        62        62        67
        12        19        20        25        61
        12        20        25        26        61
        12        20        26        61        62
        12        19        20        55        61
        12        20        55        56        61
        12        20        56        61        62
        12        12        13        19        55
        12        13        19        20        55
        12        13        20        55        56
        12        12        13        48        55
        12        13        48        49        55
        12        13        49        55        56
        12         4         5        12        48
        12         5        12        13        48
        12         5        13        48        49
        12        31        32        36        67
        12        32        36        67        68
        12        36        67        68        72
        12        32        33        37        68
        12        32        36        37        68
        12        36        37        68        72
        12        33        37        68        69
        12        37        68        69        73
        12        37        68        72        73
        12        33        34        38        69
        12        33        37        38        69
        12        37        38        69        73
        12        34        38        69        70
        12        38        69        70        74
        12        38        69        73        74
        12        34        35        39        70
        12        34        38        39        70
        12        38        39        70        74
        12        35        39        70        71
        12        39        70        71        75
        12        39        70        74        75
        12        34        35        38        71
        12        35        38        39        71
        12        38        39        71        75
        12        34        38        70        71
        12        38        70        71        74
        12        38        71        74        75
        12        33        34        37        70
        12        34        37        38        70
        12        37        38        70        74
        12        33        37        69        70
        12        37        69        70        73
        12        37        70        73        74
        12        32        33        36        69
        12        33        36        37        69
        12        36        37        69        73
        12        32        36        68        69
        12        36        68        69        72
        12        36        69        72        73
        12        31        32        32        68
        12        32        32        36        68
        12        32        36        68        72
        12        31        32        67        68
        12        32        67        68        68
        12        32        68        68        72
        12        26        27        31        67
        12        27        31        32        67
        12        27        32        67        68
        12        26        27        62        67
        12        27        62        63        67
        12        27        63        67        68
        12        20        21        26        62
        12        21        26        27        62
        12        21        27        62        63
        12        20        21        56        62
        12        21        56        57        62
        12        21        57        62        63
        12        13        14        20        56
        12        14        20        21        56
        12        14        21        56        57
        12        13        14        49        56
        12        14        49        50        56
        12        14        50        56        57
        12         5         6        13        49
        12         6        13        14        49
        12         6        14        49        50