       N       E                     dE             d eps       ncg     rms          rms(c)
DAV:   1     0.477422024893E+02    0.47742E+02   -0.65429E+03  8636   0.130E+03
DAV:   2    -0.101760479143E+02   -0.57918E+02   -0.53622E+02  8988   0.217E+02
DAV:   3    -0.121710240627E+02   -0.19950E+01   -0.19825E+01 10441   0.437E+01
DAV:   4    -0.121960638338E+02   -0.25040E-01   -0.25031E-01  9897   0.449E+00
DAV:   5    -0.121967120906E+02   -0.64826E-03   -0.64824E-03 10503   0.779E-01    0.146E-02
DAV:   6    -0.121966968865E+02    0.15204E-04   -0.37903E-04  9874   0.203E-01
   1 F= -.12196697E+02 E0= -.12196697E+02  d E =0.000000E+00  mag=     0.0000
