 vasp.5.3.2 13Sep12 (build Mar 19 2013 10:46:17) complex                        
  
 executed on             LinuxIFC date 2016.01.26  22:14:13
 serial version


--------------------------------------------------------------------------------------------------------


 INCAR:
 POTCAR:  PAW Al 17Apr2000                        
 POTCAR:  PAW Ni 02Aug2007                        
 POTCAR:  PAW Al 17Apr2000                        
   VRHFIN =Al: s2p1                                                             
   LEXCH  = CA                                                                  
   EATOM  =    53.7930 eV,    3.9537 Ry                                         
                                                                                
   TITEL  = PAW Al 17Apr2000                                                    
   LULTRA =        F    use ultrasoft PP ?                                      
   IUNSCR =        1    unscreen: 0-lin 1-nonlin 2-no                           
   RPACOR =    1.500    partial core radius                                     
   POMASS =   26.981; ZVAL   =    3.000    mass and valenz                      
   RCORE  =    1.900    outmost cutoff radius                                   
   RWIGS  =    2.650; RWIGS  =    1.402    wigner-seitz radius (au A)           
   ENMAX  =  240.957; ENMIN  =  180.718 eV                                      
   ICORE  =        2    local potential                                         
   LCOR   =        T    correct aug charges                                     
   LPAW   =        T    paw PP                                                  
   EAUG   =  291.052                                                            
   DEXC   =    0.000                                                            
   RMAX   =    1.939    core radius for proj-oper                               
   RAUG   =    1.300    factor for augmentation sphere                          
   RDEP   =    1.966    radius for radial grids                                 
   RDEPT  =    1.871    core radius for aug-charge                              
                                                                                
   Atomic configuration                                                         
    6 entries                                                                   
     n  l   j            E        occ.                                          
     1  0  0.50     -1502.2303   2.0000                                         
     2  0  0.50      -107.3893   2.0000                                         
     2  1  1.50       -69.6946   6.0000                                         
     3  0  0.50        -7.8312   2.0000                                         
     3  1  1.50        -2.7901   1.0000                                         
     3  2  2.50        -2.7212   0.0000                                         
   Description                                                                  
     l       E           TYP  RCUT    TYP  RCUT                                 
     0     -7.8312058     23  1.900                                             
     0     -3.5156079     23  1.900                                             
     1     -2.7900872     23  1.900                                             
     1     13.6058260     23  1.900                                             
     2     -2.7211652      7  1.900                                             
  local pseudopotential read in
  partial core-charges read in
  partial kinetic energy density read in
  atomic valenz-charges read in
  non local Contribution for L=           0  read in
    real space projection operators read in
  non local Contribution for L=           0  read in
    real space projection operators read in
  non local Contribution for L=           1  read in
    real space projection operators read in
  non local Contribution for L=           1  read in
    real space projection operators read in
    PAW grid and wavefunctions read in
 
   number of l-projection  operators is LMAX  =           4
   number of lm-projection operators is LMMAX =           8
 
 POTCAR:  PAW Ni 02Aug2007                        
   VRHFIN =Ni:                                                                  
   LEXCH  = CA                                                                  
   EATOM  =  1081.7953 eV,   79.5097 Ry                                         
                                                                                
   TITEL  = PAW Ni 02Aug2007                                                    
   LULTRA =        F    use ultrasoft PP ?                                      
   IUNSCR =        1    unscreen: 0-lin 1-nonlin 2-no                           
   RPACOR =    2.000    partial core radius                                     
   POMASS =   58.690; ZVAL   =   10.000    mass and valenz                      
   RCORE  =    2.300    outmost cutoff radius                                   
   RWIGS  =    2.430; RWIGS  =    1.286    wigner-seitz radius (au A)           
   ENMAX  =  269.618; ENMIN  =  202.214 eV                                      
   RCLOC  =    1.201    cutoff for local pot                                    
   LCOR   =        T    correct aug charges                                     
   LPAW   =        T    paw PP                                                  
   EAUG   =  544.565                                                            
   DEXC   =    0.000                                                            
   RMAX   =    2.357    core radius for proj-oper                               
   RAUG   =    1.300    factor for augmentation sphere                          
   RDEP   =    2.390    radius for radial grids                                 
   RDEPT  =    1.838    core radius for aug-charge                              
                                                                                
   Atomic configuration                                                         
    9 entries                                                                   
     n  l   j            E        occ.                                          
     1  0  0.50     -8166.2395   2.0000                                         
     2  0  0.50      -972.1372   2.0000                                         
     2  1  1.50      -837.5382   6.0000                                         
     3  0  0.50      -105.2012   2.0000                                         
     3  1  1.50       -66.2602   6.0000                                         
     3  2  2.50        -4.9314   9.0000                                         
     4  0  0.50        -4.7253   1.0000                                         
     4  1  1.50        -4.0817   0.0000                                         
     4  3  2.50        -1.3606   0.0000                                         
   Description                                                                  
     l       E           TYP  RCUT    TYP  RCUT                                 
     2     -4.9313510     23  2.300                                             
     2     -6.2919336     23  2.300                                             
     0     -4.7252708     23  2.300                                             
     0      4.6925118     23  2.300                                             
     1     -2.7211652     23  2.300                                             
     1     16.1356593     23  2.300                                             
  local pseudopotential read in
  partial core-charges read in
  partial kinetic energy density read in
  atomic valenz-charges read in
  non local Contribution for L=           2  read in
    real space projection operators read in
  non local Contribution for L=           2  read in
    real space projection operators read in
  non local Contribution for L=           0  read in
    real space projection operators read in
  non local Contribution for L=           0  read in
    real space projection operators read in
  non local Contribution for L=           1  read in
    real space projection operators read in
  non local Contribution for L=           1  read in
    real space projection operators read in
    PAW grid and wavefunctions read in
 
   number of l-projection  operators is LMAX  =           6
   number of lm-projection operators is LMMAX =          18
 
PAW Al 17Apr2000                        :
 energy of atom  1       EATOM=  -53.7930
 kinetic energy error for atom=    0.0002 (will be added to EATOM!!)
PAW Ni 02Aug2007                        :
 energy of atom  2       EATOM=-1081.7953
 kinetic energy error for atom=    0.0010 (will be added to EATOM!!)
 
 
 POSCAR: Ni Al                                   
  positions in direct lattice
  No initial velocities read in
 exchange correlation table for  LEXCH =        2
   RHO(1)=    0.500       N(1)  =     2000
   RHO(2)=  100.500       N(2)  =     4000
 


--------------------------------------------------------------------------------------------------------


 ion  position               nearest neighbor table
   1  0.000  0.000  0.000-   2 2.45   2 2.45   2 2.45   2 2.45   2 2.45   2 2.45   2 2.45   2 2.45

   2  0.500  0.500  0.500-   1 2.45   1 2.45   1 2.45   1 2.45   1 2.45   1 2.45   1 2.45   1 2.45

 
  LATTYP: Found a simple cubic cell.
 ALAT       =     2.8333250000
  
  Lattice vectors:
  
 A1 = (   2.8333250000,   0.0000000000,   0.0000000000)
 A2 = (   0.0000000000,   2.8333250000,   0.0000000000)
 A3 = (   0.0000000000,   0.0000000000,   2.8333250000)


Analysis of symmetry for initial positions (statically):
=====================================================================
 Subroutine PRICEL returns:
 Original cell was already a primitive cell.
 

 Routine SETGRP: Setting up the symmetry group for a 
 simple cubic supercell.


 Subroutine GETGRP returns: Found 48 space group operations
 (whereof 48 operations were pure point group operations)
 out of a pool of 48 trial point group operations.


The static configuration has the point symmetry O_h .


Analysis of symmetry for dynamics (positions and initial velocities):
=====================================================================
 Subroutine PRICEL returns:
 Original cell was already a primitive cell.
 

 Routine SETGRP: Setting up the symmetry group for a 
 simple cubic supercell.


 Subroutine GETGRP returns: Found 48 space group operations
 (whereof 48 operations were pure point group operations)
 out of a pool of 48 trial point group operations.


The dynamic configuration has the point symmetry O_h .


Analysis of magnetic symmetry:
=====================================================================

 Subroutine MAGSYM returns: Found 48 space group operations
 (whereof 48 operations were pure point group operations)
 out of a pool of 48 trial space group operations
 (whereof 48 operations were pure point group operations)
 and found also     1 'primitive' translations


The magnetic configuration has the point symmetry O_h .
 
 
 KPOINTS: KPOINTS                                 

Automatic generation of k-mesh.
Space group operators:
 irot       det(A)        alpha          n_x          n_y          n_z        tau_x        tau_y        tau_z
    1     1.000000     0.000000     1.000000     0.000000     0.000000     0.000000     0.000000     0.000000
    2    -1.000000     0.000000     1.000000     0.000000     0.000000     0.000000     0.000000     0.000000
    3     1.000000   120.000000    -0.577350    -0.577350    -0.577350     0.000000     0.000000     0.000000
    4    -1.000000   120.000000    -0.577350    -0.577350    -0.577350     0.000000     0.000000     0.000000
    5     1.000000   120.000000     0.577350     0.577350     0.577350     0.000000     0.000000     0.000000
    6    -1.000000   120.000000     0.577350     0.577350     0.577350     0.000000     0.000000     0.000000
    7     1.000000    90.000000     0.000000     0.000000    -1.000000     0.000000     0.000000     0.000000
    8    -1.000000    90.000000     0.000000     0.000000    -1.000000     0.000000     0.000000     0.000000
    9     1.000000   180.000000     0.000000     0.707107     0.707107     0.000000     0.000000     0.000000
   10    -1.000000   180.000000     0.000000     0.707107     0.707107     0.000000     0.000000     0.000000
   11     1.000000    90.000000     0.000000     1.000000     0.000000     0.000000     0.000000     0.000000
   12    -1.000000    90.000000     0.000000     1.000000     0.000000     0.000000     0.000000     0.000000
   13     1.000000   180.000000     0.000000     0.000000     1.000000     0.000000     0.000000     0.000000
   14    -1.000000   180.000000     0.000000     0.000000     1.000000     0.000000     0.000000     0.000000
   15     1.000000   120.000000    -0.577350     0.577350     0.577350     0.000000     0.000000     0.000000
   16    -1.000000   120.000000    -0.577350     0.577350     0.577350     0.000000     0.000000     0.000000
   17     1.000000   120.000000    -0.577350     0.577350    -0.577350     0.000000     0.000000     0.000000
   18    -1.000000   120.000000    -0.577350     0.577350    -0.577350     0.000000     0.000000     0.000000
   19     1.000000    90.000000     0.000000     0.000000     1.000000     0.000000     0.000000     0.000000
   20    -1.000000    90.000000     0.000000     0.000000     1.000000     0.000000     0.000000     0.000000
   21     1.000000    90.000000    -1.000000     0.000000     0.000000     0.000000     0.000000     0.000000
   22    -1.000000    90.000000    -1.000000     0.000000     0.000000     0.000000     0.000000     0.000000
   23     1.000000   180.000000     0.707107     0.000000     0.707107     0.000000     0.000000     0.000000
   24    -1.000000   180.000000     0.707107     0.000000     0.707107     0.000000     0.000000     0.000000
   25     1.000000   120.000000     0.577350    -0.577350     0.577350     0.000000     0.000000     0.000000
   26    -1.000000   120.000000     0.577350    -0.577350     0.577350     0.000000     0.000000     0.000000
   27     1.000000   120.000000    -0.577350    -0.577350     0.577350     0.000000     0.000000     0.000000
   28    -1.000000   120.000000    -0.577350    -0.577350     0.577350     0.000000     0.000000     0.000000
   29     1.000000   180.000000     1.000000     0.000000     0.000000     0.000000     0.000000     0.000000
   30    -1.000000   180.000000     1.000000     0.000000     0.000000     0.000000     0.000000     0.000000
   31     1.000000    90.000000     0.000000    -1.000000     0.000000     0.000000     0.000000     0.000000
   32    -1.000000    90.000000     0.000000    -1.000000     0.000000     0.000000     0.000000     0.000000
   33     1.000000   180.000000     0.707107     0.707107     0.000000     0.000000     0.000000     0.000000
   34    -1.000000   180.000000     0.707107     0.707107     0.000000     0.000000     0.000000     0.000000
   35     1.000000    90.000000     1.000000     0.000000     0.000000     0.000000     0.000000     0.000000
   36    -1.000000    90.000000     1.000000     0.000000     0.000000     0.000000     0.000000     0.000000
   37     1.000000   120.000000     0.577350    -0.577350    -0.577350     0.000000     0.000000     0.000000
   38    -1.000000   120.000000     0.577350    -0.577350    -0.577350     0.000000     0.000000     0.000000
   39     1.000000   180.000000     0.000000     1.000000     0.000000     0.000000     0.000000     0.000000
   40    -1.000000   180.000000     0.000000     1.000000     0.000000     0.000000     0.000000     0.000000
   41     1.000000   120.000000     0.577350     0.577350    -0.577350     0.000000     0.000000     0.000000
   42    -1.000000   120.000000     0.577350     0.577350    -0.577350     0.000000     0.000000     0.000000
   43     1.000000   180.000000     0.000000    -0.707107     0.707107     0.000000     0.000000     0.000000
   44    -1.000000   180.000000     0.000000    -0.707107     0.707107     0.000000     0.000000     0.000000
   45     1.000000   180.000000     0.707107    -0.707107     0.000000     0.000000     0.000000     0.000000
   46    -1.000000   180.000000     0.707107    -0.707107     0.000000     0.000000     0.000000     0.000000
   47     1.000000   180.000000     0.707107     0.000000    -0.707107     0.000000     0.000000     0.000000
   48    -1.000000   180.000000     0.707107     0.000000    -0.707107     0.000000     0.000000     0.000000
 
 Subroutine IBZKPT returns following result:
 ===========================================
 
 Found    165 irreducible k-points:
 
 Following reciprocal coordinates:
            Coordinates               Weight
  0.000000  0.000000  0.000000      1.000000
  0.062500  0.000000  0.000000      6.000000
  0.125000  0.000000  0.000000      6.000000
  0.187500  0.000000  0.000000      6.000000
  0.250000  0.000000  0.000000      6.000000
  0.312500  0.000000  0.000000      6.000000
  0.375000  0.000000  0.000000      6.000000
  0.437500  0.000000  0.000000      6.000000
  0.500000  0.000000  0.000000      3.000000
  0.062500  0.062500  0.000000     12.000000
  0.125000  0.062500  0.000000     24.000000
  0.187500  0.062500  0.000000     24.000000
  0.250000  0.062500  0.000000     24.000000
  0.312500  0.062500  0.000000     24.000000
  0.375000  0.062500  0.000000     24.000000
  0.437500  0.062500  0.000000     24.000000
  0.500000  0.062500  0.000000     12.000000
  0.125000  0.125000  0.000000     12.000000
  0.187500  0.125000  0.000000     24.000000
  0.250000  0.125000  0.000000     24.000000
  0.312500  0.125000  0.000000     24.000000
  0.375000  0.125000  0.000000     24.000000
  0.437500  0.125000  0.000000     24.000000
  0.500000  0.125000  0.000000     12.000000
  0.187500  0.187500  0.000000     12.000000
  0.250000  0.187500  0.000000     24.000000
  0.312500  0.187500  0.000000     24.000000
  0.375000  0.187500  0.000000     24.000000
  0.437500  0.187500  0.000000     24.000000
  0.500000  0.187500  0.000000     12.000000
  0.250000  0.250000  0.000000     12.000000
  0.312500  0.250000  0.000000     24.000000
  0.375000  0.250000  0.000000     24.000000
  0.437500  0.250000  0.000000     24.000000
  0.500000  0.250000  0.000000     12.000000
  0.312500  0.312500  0.000000     12.000000
  0.375000  0.312500  0.000000     24.000000
  0.437500  0.312500  0.000000     24.000000
  0.500000  0.312500  0.000000     12.000000
  0.375000  0.375000  0.000000     12.000000
  0.437500  0.375000  0.000000     24.000000
  0.500000  0.375000  0.000000     12.000000
  0.437500  0.437500  0.000000     12.000000
  0.500000  0.437500  0.000000     12.000000
  0.500000  0.500000  0.000000      3.000000
  0.062500  0.062500  0.062500      8.000000
  0.125000  0.062500  0.062500     24.000000
  0.187500  0.062500  0.062500     24.000000
  0.250000  0.062500  0.062500     24.000000
  0.312500  0.062500  0.062500     24.000000
  0.375000  0.062500  0.062500     24.000000
  0.437500  0.062500  0.062500     24.000000
  0.500000  0.062500  0.062500     12.000000
  0.125000  0.125000  0.062500     24.000000
  0.187500  0.125000  0.062500     48.000000
  0.250000  0.125000  0.062500     48.000000
  0.312500  0.125000  0.062500     48.000000
  0.375000  0.125000  0.062500     48.000000
  0.437500  0.125000  0.062500     48.000000
  0.500000  0.125000  0.062500     24.000000
  0.187500  0.187500  0.062500     24.000000
  0.250000  0.187500  0.062500     48.000000
  0.312500  0.187500  0.062500     48.000000
  0.375000  0.187500  0.062500     48.000000
  0.437500  0.187500  0.062500     48.000000
  0.500000  0.187500  0.062500     24.000000
  0.250000  0.250000  0.062500     24.000000
  0.312500  0.250000  0.062500     48.000000
  0.375000  0.250000  0.062500     48.000000
  0.437500  0.250000  0.062500     48.000000
  0.500000  0.250000  0.062500     24.000000
  0.312500  0.312500  0.062500     24.000000
  0.375000  0.312500  0.062500     48.000000
  0.437500  0.312500  0.062500     48.000000
  0.500000  0.312500  0.062500     24.000000
  0.375000  0.375000  0.062500     24.000000
  0.437500  0.375000  0.062500     48.000000
  0.500000  0.375000  0.062500     24.000000
  0.437500  0.437500  0.062500     24.000000
  0.500000  0.437500  0.062500     24.000000
  0.500000  0.500000  0.062500      6.000000
  0.125000  0.125000  0.125000      8.000000
  0.187500  0.125000  0.125000     24.000000
  0.250000  0.125000  0.125000     24.000000
  0.312500  0.125000  0.125000     24.000000
  0.375000  0.125000  0.125000     24.000000
  0.437500  0.125000  0.125000     24.000000
  0.500000  0.125000  0.125000     12.000000
  0.187500  0.187500  0.125000     24.000000
  0.250000  0.187500  0.125000     48.000000
  0.312500  0.187500  0.125000     48.000000
  0.375000  0.187500  0.125000     48.000000
  0.437500  0.187500  0.125000     48.000000
  0.500000  0.187500  0.125000     24.000000
  0.250000  0.250000  0.125000     24.000000
  0.312500  0.250000  0.125000     48.000000
  0.375000  0.250000  0.125000     48.000000
  0.437500  0.250000  0.125000     48.000000
  0.500000  0.250000  0.125000     24.000000
  0.312500  0.312500  0.125000     24.000000
  0.375000  0.312500  0.125000     48.000000
  0.437500  0.312500  0.125000     48.000000
  0.500000  0.312500  0.125000     24.000000
  0.375000  0.375000  0.125000     24.000000
  0.437500  0.375000  0.125000     48.000000
  0.500000  0.375000  0.125000     24.000000
  0.437500  0.437500  0.125000     24.000000
  0.500000  0.437500  0.125000     24.000000
  0.500000  0.500000  0.125000      6.000000
  0.187500  0.187500  0.187500      8.000000
  0.250000  0.187500  0.187500     24.000000
  0.312500  0.187500  0.187500     24.000000
  0.375000  0.187500  0.187500     24.000000
  0.437500  0.187500  0.187500     24.000000
  0.500000  0.187500  0.187500     12.000000
  0.250000  0.250000  0.187500     24.000000
  0.312500  0.250000  0.187500     48.000000
  0.375000  0.250000  0.187500     48.000000
  0.437500  0.250000  0.187500     48.000000
  0.500000  0.250000  0.187500     24.000000
  0.312500  0.312500  0.187500     24.000000
  0.375000  0.312500  0.187500     48.000000
  0.437500  0.312500  0.187500     48.000000
  0.500000  0.312500  0.187500     24.000000
  0.375000  0.375000  0.187500     24.000000
  0.437500  0.375000  0.187500     48.000000
  0.500000  0.375000  0.187500     24.000000
  0.437500  0.437500  0.187500     24.000000
  0.500000  0.437500  0.187500     24.000000
  0.500000  0.500000  0.187500      6.000000
  0.250000  0.250000  0.250000      8.000000
  0.312500  0.250000  0.250000     24.000000
  0.375000  0.250000  0.250000     24.000000
  0.437500  0.250000  0.250000     24.000000
  0.500000  0.250000  0.250000     12.000000
  0.312500  0.312500  0.250000     24.000000
  0.375000  0.312500  0.250000     48.000000
  0.437500  0.312500  0.250000     48.000000
  0.500000  0.312500  0.250000     24.000000
  0.375000  0.375000  0.250000     24.000000
  0.437500  0.375000  0.250000     48.000000
  0.500000  0.375000  0.250000     24.000000
  0.437500  0.437500  0.250000     24.000000
  0.500000  0.437500  0.250000     24.000000
  0.500000  0.500000  0.250000      6.000000
  0.312500  0.312500  0.312500      8.000000
  0.375000  0.312500  0.312500     24.000000
  0.437500  0.312500  0.312500     24.000000
  0.500000  0.312500  0.312500     12.000000
  0.375000  0.375000  0.312500     24.000000
  0.437500  0.375000  0.312500     48.000000
  0.500000  0.375000  0.312500     24.000000
  0.437500  0.437500  0.312500     24.000000
  0.500000  0.437500  0.312500     24.000000
  0.500000  0.500000  0.312500      6.000000
  0.375000  0.375000  0.375000      8.000000
  0.437500  0.375000  0.375000     24.000000
  0.500000  0.375000  0.375000     12.000000
  0.437500  0.437500  0.375000     24.000000
  0.500000  0.437500  0.375000     24.000000
  0.500000  0.500000  0.375000      6.000000
  0.437500  0.437500  0.437500      8.000000
  0.500000  0.437500  0.437500     12.000000
  0.500000  0.500000  0.437500      6.000000
  0.500000  0.500000  0.500000      1.000000
 
 Following cartesian coordinates:
            Coordinates               Weight
  0.000000  0.000000  0.000000      1.000000
  0.022059  0.000000  0.000000      6.000000
  0.044118  0.000000  0.000000      6.000000
  0.066177  0.000000  0.000000      6.000000
  0.088236  0.000000  0.000000      6.000000
  0.110294  0.000000  0.000000      6.000000
  0.132353  0.000000  0.000000      6.000000
  0.154412  0.000000  0.000000      6.000000
  0.176471  0.000000  0.000000      3.000000
  0.022059  0.022059  0.000000     12.000000
  0.044118  0.022059  0.000000     24.000000
  0.066177  0.022059  0.000000     24.000000
  0.088236  0.022059  0.000000     24.000000
  0.110294  0.022059  0.000000     24.000000
  0.132353  0.022059  0.000000     24.000000
  0.154412  0.022059  0.000000     24.000000
  0.176471  0.022059  0.000000     12.000000
  0.044118  0.044118  0.000000     12.000000
  0.066177  0.044118  0.000000     24.000000
  0.088236  0.044118  0.000000     24.000000
  0.110294  0.044118  0.000000     24.000000
  0.132353  0.044118  0.000000     24.000000
  0.154412  0.044118  0.000000     24.000000
  0.176471  0.044118  0.000000     12.000000
  0.066177  0.066177  0.000000     12.000000
  0.088236  0.066177  0.000000     24.000000
  0.110294  0.066177  0.000000     24.000000
  0.132353  0.066177  0.000000     24.000000
  0.154412  0.066177  0.000000     24.000000
  0.176471  0.066177  0.000000     12.000000
  0.088236  0.088236  0.000000     12.000000
  0.110294  0.088236  0.000000     24.000000
  0.132353  0.088236  0.000000     24.000000
  0.154412  0.088236  0.000000     24.000000
  0.176471  0.088236  0.000000     12.000000
  0.110294  0.110294  0.000000     12.000000
  0.132353  0.110294  0.000000     24.000000
  0.154412  0.110294  0.000000     24.000000
  0.176471  0.110294  0.000000     12.000000
  0.132353  0.132353  0.000000     12.000000
  0.154412  0.132353  0.000000     24.000000
  0.176471  0.132353  0.000000     12.000000
  0.154412  0.154412  0.000000     12.000000
  0.176471  0.154412  0.000000     12.000000
  0.176471  0.176471  0.000000      3.000000
  0.022059  0.022059  0.022059      8.000000
  0.044118  0.022059  0.022059     24.000000
  0.066177  0.022059  0.022059     24.000000
  0.088236  0.022059  0.022059     24.000000
  0.110294  0.022059  0.022059     24.000000
  0.132353  0.022059  0.022059     24.000000
  0.154412  0.022059  0.022059     24.000000
  0.176471  0.022059  0.022059     12.000000
  0.044118  0.044118  0.022059     24.000000
  0.066177  0.044118  0.022059     48.000000
  0.088236  0.044118  0.022059     48.000000
  0.110294  0.044118  0.022059     48.000000
  0.132353  0.044118  0.022059     48.000000
  0.154412  0.044118  0.022059     48.000000
  0.176471  0.044118  0.022059     24.000000
  0.066177  0.066177  0.022059     24.000000
  0.088236  0.066177  0.022059     48.000000
  0.110294  0.066177  0.022059     48.000000
  0.132353  0.066177  0.022059     48.000000
  0.154412  0.066177  0.022059     48.000000
  0.176471  0.066177  0.022059     24.000000
  0.088236  0.088236  0.022059     24.000000
  0.110294  0.088236  0.022059     48.000000
  0.132353  0.088236  0.022059     48.000000
  0.154412  0.088236  0.022059     48.000000
  0.176471  0.088236  0.022059     24.000000
  0.110294  0.110294  0.022059     24.000000
  0.132353  0.110294  0.022059     48.000000
  0.154412  0.110294  0.022059     48.000000
  0.176471  0.110294  0.022059     24.000000
  0.132353  0.132353  0.022059     24.000000
  0.154412  0.132353  0.022059     48.000000
  0.176471  0.132353  0.022059     24.000000
  0.154412  0.154412  0.022059     24.000000
  0.176471  0.154412  0.022059     24.000000
  0.176471  0.176471  0.022059      6.000000
  0.044118  0.044118  0.044118      8.000000
  0.066177  0.044118  0.044118     24.000000
  0.088236  0.044118  0.044118     24.000000
  0.110294  0.044118  0.044118     24.000000
  0.132353  0.044118  0.044118     24.000000
  0.154412  0.044118  0.044118     24.000000
  0.176471  0.044118  0.044118     12.000000
  0.066177  0.066177  0.044118     24.000000
  0.088236  0.066177  0.044118     48.000000
  0.110294  0.066177  0.044118     48.000000
  0.132353  0.066177  0.044118     48.000000
  0.154412  0.066177  0.044118     48.000000
  0.176471  0.066177  0.044118     24.000000
  0.088236  0.088236  0.044118     24.000000
  0.110294  0.088236  0.044118     48.000000
  0.132353  0.088236  0.044118     48.000000
  0.154412  0.088236  0.044118     48.000000
  0.176471  0.088236  0.044118     24.000000
  0.110294  0.110294  0.044118     24.000000
  0.132353  0.110294  0.044118     48.000000
  0.154412  0.110294  0.044118     48.000000
  0.176471  0.110294  0.044118     24.000000
  0.132353  0.132353  0.044118     24.000000
  0.154412  0.132353  0.044118     48.000000
  0.176471  0.132353  0.044118     24.000000
  0.154412  0.154412  0.044118     24.000000
  0.176471  0.154412  0.044118     24.000000
  0.176471  0.176471  0.044118      6.000000
  0.066177  0.066177  0.066177      8.000000
  0.088236  0.066177  0.066177     24.000000
  0.110294  0.066177  0.066177     24.000000
  0.132353  0.066177  0.066177     24.000000
  0.154412  0.066177  0.066177     24.000000
  0.176471  0.066177  0.066177     12.000000
  0.088236  0.088236  0.066177     24.000000
  0.110294  0.088236  0.066177     48.000000
  0.132353  0.088236  0.066177     48.000000
  0.154412  0.088236  0.066177     48.000000
  0.176471  0.088236  0.066177     24.000000
  0.110294  0.110294  0.066177     24.000000
  0.132353  0.110294  0.066177     48.000000
  0.154412  0.110294  0.066177     48.000000
  0.176471  0.110294  0.066177     24.000000
  0.132353  0.132353  0.066177     24.000000
  0.154412  0.132353  0.066177     48.000000
  0.176471  0.132353  0.066177     24.000000
  0.154412  0.154412  0.066177     24.000000
  0.176471  0.154412  0.066177     24.000000
  0.176471  0.176471  0.066177      6.000000
  0.088236  0.088236  0.088236      8.000000
  0.110294  0.088236  0.088236     24.000000
  0.132353  0.088236  0.088236     24.000000
  0.154412  0.088236  0.088236     24.000000
  0.176471  0.088236  0.088236     12.000000
  0.110294  0.110294  0.088236     24.000000
  0.132353  0.110294  0.088236     48.000000
  0.154412  0.110294  0.088236     48.000000
  0.176471  0.110294  0.088236     24.000000
  0.132353  0.132353  0.088236     24.000000
  0.154412  0.132353  0.088236     48.000000
  0.176471  0.132353  0.088236     24.000000
  0.154412  0.154412  0.088236     24.000000
  0.176471  0.154412  0.088236     24.000000
  0.176471  0.176471  0.088236      6.000000
  0.110294  0.110294  0.110294      8.000000
  0.132353  0.110294  0.110294     24.000000
  0.154412  0.110294  0.110294     24.000000
  0.176471  0.110294  0.110294     12.000000
  0.132353  0.132353  0.110294     24.000000
  0.154412  0.132353  0.110294     48.000000
  0.176471  0.132353  0.110294     24.000000
  0.154412  0.154412  0.110294     24.000000
  0.176471  0.154412  0.110294     24.000000
  0.176471  0.176471  0.110294      6.000000
  0.132353  0.132353  0.132353      8.000000
  0.154412  0.132353  0.132353     24.000000
  0.176471  0.132353  0.132353     12.000000
  0.154412  0.154412  0.132353     24.000000
  0.176471  0.154412  0.132353     24.000000
  0.176471  0.176471  0.132353      6.000000
  0.154412  0.154412  0.154412      8.000000
  0.176471  0.154412  0.154412     12.000000
  0.176471  0.176471  0.154412      6.000000
  0.176471  0.176471  0.176471      1.000000
 
 TETIRR: Found   2034 inequivalent tetrahedra from    24576


--------------------------------------------------------------------------------------------------------




 Dimension of arrays:
   k-points           NKPTS =    165   k-points in BZ     NKDIM =    165   number of bands    NBANDS=     13
   number of dos      NEDOS =    301   number of ions     NIONS =      2
   non local maximal  LDIM  =      6   non local SUM 2l+1 LMDIM =     18
   total plane-waves  NPLWV =  13824
   max r-space proj   IRMAX =      1   max aug-charges    IRDMAX=  23851
   dimension x,y,z NGX =    24 NGY =   24 NGZ =   24
   dimension x,y,z NGXF=    48 NGYF=   48 NGZF=   48
   support grid    NGXF=    48 NGYF=   48 NGZF=   48
   ions per type =               1   1
 NGX,Y,Z   is equivalent  to a cutoff of  14.08, 14.08, 14.08 a.u.
 NGXF,Y,Z  is equivalent  to a cutoff of  28.16, 28.16, 28.16 a.u.


 I would recommend the setting:
   dimension x,y,z NGX =    24 NGY =   24 NGZ =   24
 SYSTEM =  unknown system                          
 POSCAR =  Ni Al                                   

 Startparameter for this run:
   NWRITE =      2    write-flag & timer
   PREC   = acc       normal or accurate (medium, high low for compatibility)
   ISTART =      0    job   : 0-new  1-cont  2-samecut
   ICHARG =      1    charge: 1-file 2-atom 10-const
   ISPIN  =      2    spin polarized calculation?
   LNONCOLLINEAR =      F non collinear calculations
   LSORBIT =      F    spin-orbit coupling
   INIWAV =      1    electr: 0-lowe 1-rand  2-diag
   LASPH  =      F    aspherical Exc in radial PAW
   METAGGA=      F    non-selfconsistent MetaGGA calc.

 Electronic Relaxation 1
   ENCUT  =  650.0 eV  47.77 Ry    6.91 a.u.   5.89  5.89  5.89*2*pi/ulx,y,z
   ENINI  =  650.0     initial cutoff
   ENAUG  =  544.6 eV  augmentation charge cutoff
   NELM   =     60;   NELMIN=  5; NELMDL=  0     # of ELM steps 
   EDIFF  = 0.1E-03   stopping-criterion for ELM
   LREAL  =      F    real-space projection
   NLSPLINE    = F    spline interpolate recip. space projectors
   LCOMPAT=      F    compatible to vasp.4.4
   GGA_COMPAT  = T    GGA compatible to vasp.4.4-vasp.4.6
   LMAXPAW     = -100 max onsite density
   LMAXMIX     =    2 max onsite mixed and CHGCAR
   VOSKOWN=      0    Vosko Wilk Nusair interpolation
   ROPT   =    0.00000   0.00000
 Ionic relaxation
   EDIFFG = 0.1E-02   stopping-criterion for IOM
   NSW    =      0    number of steps for IOM
   NBLOCK =      1;   KBLOCK =      1    inner block; outer block 
   IBRION =     -1    ionic relax: 0-MD 1-quasi-New 2-CG
   NFREE  =      0    steps in history (QN), initial steepest desc. (CG)
   ISIF   =      2    stress and relaxation
   IWAVPR =      0    prediction:  0-non 1-charg 2-wave 3-comb
   ISYM   =      2    0-nonsym 1-usesym 2-fastsym
   LCORR  =      T    Harris-Foulkes like correction to forces

   POTIM  = 0.5000    time-step for ionic-motion
   TEIN   =    0.0    initial temperature
   TEBEG  =    0.0;   TEEND  =   0.0 temperature during run
   SMASS  =  -3.00    Nose mass-parameter (am)
   estimated Nose-frequenzy (Omega)   =  0.10E-29 period in steps =****** mass=  -0.183E-27a.u.
   SCALEE = 1.0000    scale energy and forces
   NPACO  =    256;   APACO  = 16.0  distance and # of slots for P.C.
   PSTRESS=    0.0 pullay stress

  Mass of Ions in am
   POMASS =  26.98 58.69
  Ionic Valenz
   ZVAL   =   3.00 10.00
  Atomic Wigner-Seitz radii
   RWIGS  =  -1.00 -1.00
  virtual crystal weights 
   VCA    =   1.00  1.00
   NELECT =      13.0000    total number of electrons
   NUPDOWN=      -1.0000    fix difference up-down

 DOS related values:
   EMIN   =  10.00;   EMAX   =-10.00  energy-range for DOS
   EFERMI =   0.00
   ISMEAR =    -5;   SIGMA  =   0.20  broadening in eV -4-tet -1-fermi 0-gaus

 Electronic relaxation 2 (details)
   IALGO  =     38    algorithm
   LDIAG  =      T    sub-space diagonalisation (order eigenvalues)
   LSUBROT=      T    optimize rotation matrix (better conditioning)
   TURBO    =      0    0=normal 1=particle mesh
   IRESTART =      0    0=no restart 2=restart with 2 vectors
   NREBOOT  =      0    no. of reboots
   NMIN     =      0    reboot dimension
   EREF     =   0.00    reference energy to select bands
   IMIX   =      4    mixing-type and parameters
     AMIX     =   0.40;   BMIX     =  1.00
     AMIX_MAG =   1.60;   BMIX_MAG =  1.00
     AMIN     =   0.10
     WC   =   100.;   INIMIX=   1;  MIXPRE=   1;  MAXMIX= -45

 Intra band minimization:
   WEIMIN = 0.0000     energy-eigenvalue tresh-hold
   EBREAK =  0.19E-05  absolut break condition
   DEPER  =   0.30     relativ break condition  

   TIME   =   0.40     timestep for ELM

  volume/ion in A,a.u.               =      11.37        76.75
  Fermi-wavevector in a.u.,A,eV,Ry     =   1.358604  2.567389 25.113699  1.845805
  Thomas-Fermi vector in A             =   2.485423
 
 Write flags
   LWAVE  =      F    write WAVECAR
   LCHARG =      T    write CHGCAR
   LVTOT  =      T    write LOCPOT, total local potential
   LVHAR  =      F    write LOCPOT, Hartree potential only
   LELF   =      F    write electronic localiz. function (ELF)
   LORBIT =      0    0 simple, 1 ext, 2 COOP (PROOUT)


 Dipole corrections
   LMONO  =      F    monopole corrections only (constant potential shift)
   LDIPOL =      F    correct potential (dipole corrections)
   IDIPOL =      0    1-x, 2-y, 3-z, 4-all directions 
   EPSILON=  1.0000000 bulk dielectric constant

 Exchange correlation treatment:
   GGA     =    --    GGA type
   LEXCH   =     2    internal setting for exchange type
   VOSKOWN=      0    Vosko Wilk Nusair interpolation
   LHFCALC =     F    Hartree Fock is set to
   LHFONE  =     F    Hartree Fock one center treatment
   AEXX    =    0.0000 exact exchange contribution

 Linear response parameters
   LEPSILON=     F    determine dielectric tensor
   LRPA    =     F    only Hartree local field effects (RPA)
   LNABLA  =     F    use nabla operator in PAW spheres
   LVEL    =     F    velocity operator in full k-point grid
   LINTERFAST=   F  fast interpolation
   KINTER  =     0    interpolate to denser k-point grid
   CSHIFT  =0.1000    complex shift for real part using Kramers Kronig
   OMEGAMAX=  -1.0    maximum frequency
   DEG_THRESHOLD= 0.2000000E-02 threshold for treating states as degnerate
   RTIME   =    0.100 relaxation time in fs

 Orbital magnetization related:
   ORBITALMAG=     F  switch on orbital magnetization
   LCHIMAG   =     F  perturbation theory with respect to B field
   DQ        =  0.001000  dq finite difference perturbation B field



--------------------------------------------------------------------------------------------------------


 Static calculation
 charge density and potential will be updated during run
 spin polarized calculation
 Variant of blocked Davidson
 Davidson routine will perform the subspace rotation
 perform sub-space diagonalisation
    after iterative eigenvector-optimisation
 modified Broyden-mixing scheme, WC =      100.0
 initial mixing is a Kerker type mixing with AMIX =  0.4000 and BMIX =      1.0000
 Hartree-type preconditioning will be used
 using additional bands            6
 reciprocal scheme for non local part
 use partial core corrections
 calculate Harris-corrections to forces 
   (improved forces if not selfconsistent)
 use of overlap-Matrix (Vanderbilt PP)
 Fermi weights with tetrahedron method with Bloechl corrections


--------------------------------------------------------------------------------------------------------


  energy-cutoff  :      650.00
  volume of cell :       22.75
      direct lattice vectors                 reciprocal lattice vectors
     2.833325000  0.000000000  0.000000000     0.352942215  0.000000000  0.000000000
     0.000000000  2.833325000  0.000000000     0.000000000  0.352942215  0.000000000
     0.000000000  0.000000000  2.833325000     0.000000000  0.000000000  0.352942215

  length of vectors
     2.833325000  2.833325000  2.833325000     0.352942215  0.352942215  0.352942215


 
 k-points in units of 2pi/SCALE and weight: KPOINTS                                 
   0.00000000  0.00000000  0.00000000       0.000
   0.02205889  0.00000000  0.00000000       0.001
   0.04411778  0.00000000  0.00000000       0.001
   0.06617667  0.00000000  0.00000000       0.001
   0.08823555  0.00000000  0.00000000       0.001
   0.11029444  0.00000000  0.00000000       0.001
   0.13235333  0.00000000  0.00000000       0.001
   0.15441222  0.00000000  0.00000000       0.001
   0.17647111  0.00000000  0.00000000       0.001
   0.02205889  0.02205889  0.00000000       0.003
   0.04411778  0.02205889  0.00000000       0.006
   0.06617667  0.02205889  0.00000000       0.006
   0.08823555  0.02205889  0.00000000       0.006
   0.11029444  0.02205889  0.00000000       0.006
   0.13235333  0.02205889  0.00000000       0.006
   0.15441222  0.02205889  0.00000000       0.006
   0.17647111  0.02205889  0.00000000       0.003
   0.04411778  0.04411778  0.00000000       0.003
   0.06617667  0.04411778  0.00000000       0.006
   0.08823555  0.04411778  0.00000000       0.006
   0.11029444  0.04411778  0.00000000       0.006
   0.13235333  0.04411778  0.00000000       0.006
   0.15441222  0.04411778  0.00000000       0.006
   0.17647111  0.04411778  0.00000000       0.003
   0.06617667  0.06617667  0.00000000       0.003
   0.08823555  0.06617667  0.00000000       0.006
   0.11029444  0.06617667  0.00000000       0.006
   0.13235333  0.06617667  0.00000000       0.006
   0.15441222  0.06617667  0.00000000       0.006
   0.17647111  0.06617667  0.00000000       0.003
   0.08823555  0.08823555  0.00000000       0.003
   0.11029444  0.08823555  0.00000000       0.006
   0.13235333  0.08823555  0.00000000       0.006
   0.15441222  0.08823555  0.00000000       0.006
   0.17647111  0.08823555  0.00000000       0.003
   0.11029444  0.11029444  0.00000000       0.003
   0.13235333  0.11029444  0.00000000       0.006
   0.15441222  0.11029444  0.00000000       0.006
   0.17647111  0.11029444  0.00000000       0.003
   0.13235333  0.13235333  0.00000000       0.003
   0.15441222  0.13235333  0.00000000       0.006
   0.17647111  0.13235333  0.00000000       0.003
   0.15441222  0.15441222  0.00000000       0.003
   0.17647111  0.15441222  0.00000000       0.003
   0.17647111  0.17647111  0.00000000       0.001
   0.02205889  0.02205889  0.02205889       0.002
   0.04411778  0.02205889  0.02205889       0.006
   0.06617667  0.02205889  0.02205889       0.006
   0.08823555  0.02205889  0.02205889       0.006
   0.11029444  0.02205889  0.02205889       0.006
   0.13235333  0.02205889  0.02205889       0.006
   0.15441222  0.02205889  0.02205889       0.006
   0.17647111  0.02205889  0.02205889       0.003
   0.04411778  0.04411778  0.02205889       0.006
   0.06617667  0.04411778  0.02205889       0.012
   0.08823555  0.04411778  0.02205889       0.012
   0.11029444  0.04411778  0.02205889       0.012
   0.13235333  0.04411778  0.02205889       0.012
   0.15441222  0.04411778  0.02205889       0.012
   0.17647111  0.04411778  0.02205889       0.006
   0.06617667  0.06617667  0.02205889       0.006
   0.08823555  0.06617667  0.02205889       0.012
   0.11029444  0.06617667  0.02205889       0.012
   0.13235333  0.06617667  0.02205889       0.012
   0.15441222  0.06617667  0.02205889       0.012
   0.17647111  0.06617667  0.02205889       0.006
   0.08823555  0.08823555  0.02205889       0.006
   0.11029444  0.08823555  0.02205889       0.012
   0.13235333  0.08823555  0.02205889       0.012
   0.15441222  0.08823555  0.02205889       0.012
   0.17647111  0.08823555  0.02205889       0.006
   0.11029444  0.11029444  0.02205889       0.006
   0.13235333  0.11029444  0.02205889       0.012
   0.15441222  0.11029444  0.02205889       0.012
   0.17647111  0.11029444  0.02205889       0.006
   0.13235333  0.13235333  0.02205889       0.006
   0.15441222  0.13235333  0.02205889       0.012
   0.17647111  0.13235333  0.02205889       0.006
   0.15441222  0.15441222  0.02205889       0.006
   0.17647111  0.15441222  0.02205889       0.006
   0.17647111  0.17647111  0.02205889       0.001
   0.04411778  0.04411778  0.04411778       0.002
   0.06617667  0.04411778  0.04411778       0.006
   0.08823555  0.04411778  0.04411778       0.006
   0.11029444  0.04411778  0.04411778       0.006
   0.13235333  0.04411778  0.04411778       0.006
   0.15441222  0.04411778  0.04411778       0.006
   0.17647111  0.04411778  0.04411778       0.003
   0.06617667  0.06617667  0.04411778       0.006
   0.08823555  0.06617667  0.04411778       0.012
   0.11029444  0.06617667  0.04411778       0.012
   0.13235333  0.06617667  0.04411778       0.012
   0.15441222  0.06617667  0.04411778       0.012
   0.17647111  0.06617667  0.04411778       0.006
   0.08823555  0.08823555  0.04411778       0.006
   0.11029444  0.08823555  0.04411778       0.012
   0.13235333  0.08823555  0.04411778       0.012
   0.15441222  0.08823555  0.04411778       0.012
   0.17647111  0.08823555  0.04411778       0.006
   0.11029444  0.11029444  0.04411778       0.006
   0.13235333  0.11029444  0.04411778       0.012
   0.15441222  0.11029444  0.04411778       0.012
   0.17647111  0.11029444  0.04411778       0.006
   0.13235333  0.13235333  0.04411778       0.006
   0.15441222  0.13235333  0.04411778       0.012
   0.17647111  0.13235333  0.04411778       0.006
   0.15441222  0.15441222  0.04411778       0.006
   0.17647111  0.15441222  0.04411778       0.006
   0.17647111  0.17647111  0.04411778       0.001
   0.06617667  0.06617667  0.06617667       0.002
   0.08823555  0.06617667  0.06617667       0.006
   0.11029444  0.06617667  0.06617667       0.006
   0.13235333  0.06617667  0.06617667       0.006
   0.15441222  0.06617667  0.06617667       0.006
   0.17647111  0.06617667  0.06617667       0.003
   0.08823555  0.08823555  0.06617667       0.006
   0.11029444  0.08823555  0.06617667       0.012
   0.13235333  0.08823555  0.06617667       0.012
   0.15441222  0.08823555  0.06617667       0.012
   0.17647111  0.08823555  0.06617667       0.006
   0.11029444  0.11029444  0.06617667       0.006
   0.13235333  0.11029444  0.06617667       0.012
   0.15441222  0.11029444  0.06617667       0.012
   0.17647111  0.11029444  0.06617667       0.006
   0.13235333  0.13235333  0.06617667       0.006
   0.15441222  0.13235333  0.06617667       0.012
   0.17647111  0.13235333  0.06617667       0.006
   0.15441222  0.15441222  0.06617667       0.006
   0.17647111  0.15441222  0.06617667       0.006
   0.17647111  0.17647111  0.06617667       0.001
   0.08823555  0.08823555  0.08823555       0.002
   0.11029444  0.08823555  0.08823555       0.006
   0.13235333  0.08823555  0.08823555       0.006
   0.15441222  0.08823555  0.08823555       0.006
   0.17647111  0.08823555  0.08823555       0.003
   0.11029444  0.11029444  0.08823555       0.006
   0.13235333  0.11029444  0.08823555       0.012
   0.15441222  0.11029444  0.08823555       0.012
   0.17647111  0.11029444  0.08823555       0.006
   0.13235333  0.13235333  0.08823555       0.006
   0.15441222  0.13235333  0.08823555       0.012
   0.17647111  0.13235333  0.08823555       0.006
   0.15441222  0.15441222  0.08823555       0.006
   0.17647111  0.15441222  0.08823555       0.006
   0.17647111  0.17647111  0.08823555       0.001
   0.11029444  0.11029444  0.11029444       0.002
   0.13235333  0.11029444  0.11029444       0.006
   0.15441222  0.11029444  0.11029444       0.006
   0.17647111  0.11029444  0.11029444       0.003
   0.13235333  0.13235333  0.11029444       0.006
   0.15441222  0.13235333  0.11029444       0.012
   0.17647111  0.13235333  0.11029444       0.006
   0.15441222  0.15441222  0.11029444       0.006
   0.17647111  0.15441222  0.11029444       0.006
   0.17647111  0.17647111  0.11029444       0.001
   0.13235333  0.13235333  0.13235333       0.002
   0.15441222  0.13235333  0.13235333       0.006
   0.17647111  0.13235333  0.13235333       0.003
   0.15441222  0.15441222  0.13235333       0.006
   0.17647111  0.15441222  0.13235333       0.006
   0.17647111  0.17647111  0.13235333       0.001
   0.15441222  0.15441222  0.15441222       0.002
   0.17647111  0.15441222  0.15441222       0.003
   0.17647111  0.17647111  0.15441222       0.001
   0.17647111  0.17647111  0.17647111       0.000
 
 k-points in reciprocal lattice and weights: KPOINTS                                 
   0.00000000  0.00000000  0.00000000       0.000
   0.06250000  0.00000000  0.00000000       0.001
   0.12500000  0.00000000  0.00000000       0.001
   0.18750000  0.00000000  0.00000000       0.001
   0.25000000  0.00000000  0.00000000       0.001
   0.31250000  0.00000000  0.00000000       0.001
   0.37500000  0.00000000  0.00000000       0.001
   0.43750000  0.00000000  0.00000000       0.001
   0.50000000  0.00000000  0.00000000       0.001
   0.06250000  0.06250000  0.00000000       0.003
   0.12500000  0.06250000  0.00000000       0.006
   0.18750000  0.06250000  0.00000000       0.006
   0.25000000  0.06250000  0.00000000       0.006
   0.31250000  0.06250000  0.00000000       0.006
   0.37500000  0.06250000  0.00000000       0.006
   0.43750000  0.06250000  0.00000000       0.006
   0.50000000  0.06250000  0.00000000       0.003
   0.12500000  0.12500000  0.00000000       0.003
   0.18750000  0.12500000  0.00000000       0.006
   0.25000000  0.12500000  0.00000000       0.006
   0.31250000  0.12500000  0.00000000       0.006
   0.37500000  0.12500000  0.00000000       0.006
   0.43750000  0.12500000  0.00000000       0.006
   0.50000000  0.12500000  0.00000000       0.003
   0.18750000  0.18750000  0.00000000       0.003
   0.25000000  0.18750000  0.00000000       0.006
   0.31250000  0.18750000  0.00000000       0.006
   0.37500000  0.18750000  0.00000000       0.006
   0.43750000  0.18750000  0.00000000       0.006
   0.50000000  0.18750000  0.00000000       0.003
   0.25000000  0.25000000  0.00000000       0.003
   0.31250000  0.25000000  0.00000000       0.006
   0.37500000  0.25000000  0.00000000       0.006
   0.43750000  0.25000000  0.00000000       0.006
   0.50000000  0.25000000  0.00000000       0.003
   0.31250000  0.31250000  0.00000000       0.003
   0.37500000  0.31250000  0.00000000       0.006
   0.43750000  0.31250000  0.00000000       0.006
   0.50000000  0.31250000  0.00000000       0.003
   0.37500000  0.37500000  0.00000000       0.003
   0.43750000  0.37500000  0.00000000       0.006
   0.50000000  0.37500000  0.00000000       0.003
   0.43750000  0.43750000  0.00000000       0.003
   0.50000000  0.43750000  0.00000000       0.003
   0.50000000  0.50000000  0.00000000       0.001
   0.06250000  0.06250000  0.06250000       0.002
   0.12500000  0.06250000  0.06250000       0.006
   0.18750000  0.06250000  0.06250000       0.006
   0.25000000  0.06250000  0.06250000       0.006
   0.31250000  0.06250000  0.06250000       0.006
   0.37500000  0.06250000  0.06250000       0.006
   0.43750000  0.06250000  0.06250000       0.006
   0.50000000  0.06250000  0.06250000       0.003
   0.12500000  0.12500000  0.06250000       0.006
   0.18750000  0.12500000  0.06250000       0.012
   0.25000000  0.12500000  0.06250000       0.012
   0.31250000  0.12500000  0.06250000       0.012
   0.37500000  0.12500000  0.06250000       0.012
   0.43750000  0.12500000  0.06250000       0.012
   0.50000000  0.12500000  0.06250000       0.006
   0.18750000  0.18750000  0.06250000       0.006
   0.25000000  0.18750000  0.06250000       0.012
   0.31250000  0.18750000  0.06250000       0.012
   0.37500000  0.18750000  0.06250000       0.012
   0.43750000  0.18750000  0.06250000       0.012
   0.50000000  0.18750000  0.06250000       0.006
   0.25000000  0.25000000  0.06250000       0.006
   0.31250000  0.25000000  0.06250000       0.012
   0.37500000  0.25000000  0.06250000       0.012
   0.43750000  0.25000000  0.06250000       0.012
   0.50000000  0.25000000  0.06250000       0.006
   0.31250000  0.31250000  0.06250000       0.006
   0.37500000  0.31250000  0.06250000       0.012
   0.43750000  0.31250000  0.06250000       0.012
   0.50000000  0.31250000  0.06250000       0.006
   0.37500000  0.37500000  0.06250000       0.006
   0.43750000  0.37500000  0.06250000       0.012
   0.50000000  0.37500000  0.06250000       0.006
   0.43750000  0.43750000  0.06250000       0.006
   0.50000000  0.43750000  0.06250000       0.006
   0.50000000  0.50000000  0.06250000       0.001
   0.12500000  0.12500000  0.12500000       0.002
   0.18750000  0.12500000  0.12500000       0.006
   0.25000000  0.12500000  0.12500000       0.006
   0.31250000  0.12500000  0.12500000       0.006
   0.37500000  0.12500000  0.12500000       0.006
   0.43750000  0.12500000  0.12500000       0.006
   0.50000000  0.12500000  0.12500000       0.003
   0.18750000  0.18750000  0.12500000       0.006
   0.25000000  0.18750000  0.12500000       0.012
   0.31250000  0.18750000  0.12500000       0.012
   0.37500000  0.18750000  0.12500000       0.012
   0.43750000  0.18750000  0.12500000       0.012
   0.50000000  0.18750000  0.12500000       0.006
   0.25000000  0.25000000  0.12500000       0.006
   0.31250000  0.25000000  0.12500000       0.012
   0.37500000  0.25000000  0.12500000       0.012
   0.43750000  0.25000000  0.12500000       0.012
   0.50000000  0.25000000  0.12500000       0.006
   0.31250000  0.31250000  0.12500000       0.006
   0.37500000  0.31250000  0.12500000       0.012
   0.43750000  0.31250000  0.12500000       0.012
   0.50000000  0.31250000  0.12500000       0.006
   0.37500000  0.37500000  0.12500000       0.006
   0.43750000  0.37500000  0.12500000       0.012
   0.50000000  0.37500000  0.12500000       0.006
   0.43750000  0.43750000  0.12500000       0.006
   0.50000000  0.43750000  0.12500000       0.006
   0.50000000  0.50000000  0.12500000       0.001
   0.18750000  0.18750000  0.18750000       0.002
   0.25000000  0.18750000  0.18750000       0.006
   0.31250000  0.18750000  0.18750000       0.006
   0.37500000  0.18750000  0.18750000       0.006
   0.43750000  0.18750000  0.18750000       0.006
   0.50000000  0.18750000  0.18750000       0.003
   0.25000000  0.25000000  0.18750000       0.006
   0.31250000  0.25000000  0.18750000       0.012
   0.37500000  0.25000000  0.18750000       0.012
   0.43750000  0.25000000  0.18750000       0.012
   0.50000000  0.25000000  0.18750000       0.006
   0.31250000  0.31250000  0.18750000       0.006
   0.37500000  0.31250000  0.18750000       0.012
   0.43750000  0.31250000  0.18750000       0.012
   0.50000000  0.31250000  0.18750000       0.006
   0.37500000  0.37500000  0.18750000       0.006
   0.43750000  0.37500000  0.18750000       0.012
   0.50000000  0.37500000  0.18750000       0.006
   0.43750000  0.43750000  0.18750000       0.006
   0.50000000  0.43750000  0.18750000       0.006
   0.50000000  0.50000000  0.18750000       0.001
   0.25000000  0.25000000  0.25000000       0.002
   0.31250000  0.25000000  0.25000000       0.006
   0.37500000  0.25000000  0.25000000       0.006
   0.43750000  0.25000000  0.25000000       0.006
   0.50000000  0.25000000  0.25000000       0.003
   0.31250000  0.31250000  0.25000000       0.006
   0.37500000  0.31250000  0.25000000       0.012
   0.43750000  0.31250000  0.25000000       0.012
   0.50000000  0.31250000  0.25000000       0.006
   0.37500000  0.37500000  0.25000000       0.006
   0.43750000  0.37500000  0.25000000       0.012
   0.50000000  0.37500000  0.25000000       0.006
   0.43750000  0.43750000  0.25000000       0.006
   0.50000000  0.43750000  0.25000000       0.006
   0.50000000  0.50000000  0.25000000       0.001
   0.31250000  0.31250000  0.31250000       0.002
   0.37500000  0.31250000  0.31250000       0.006
   0.43750000  0.31250000  0.31250000       0.006
   0.50000000  0.31250000  0.31250000       0.003
   0.37500000  0.37500000  0.31250000       0.006
   0.43750000  0.37500000  0.31250000       0.012
   0.50000000  0.37500000  0.31250000       0.006
   0.43750000  0.43750000  0.31250000       0.006
   0.50000000  0.43750000  0.31250000       0.006
   0.50000000  0.50000000  0.31250000       0.001
   0.37500000  0.37500000  0.37500000       0.002
   0.43750000  0.37500000  0.37500000       0.006
   0.50000000  0.37500000  0.37500000       0.003
   0.43750000  0.43750000  0.37500000       0.006
   0.50000000  0.43750000  0.37500000       0.006
   0.50000000  0.50000000  0.37500000       0.001
   0.43750000  0.43750000  0.43750000       0.002
   0.50000000  0.43750000  0.43750000       0.003
   0.50000000  0.50000000  0.43750000       0.001
   0.50000000  0.50000000  0.50000000       0.000
 
 position of ions in fractional coordinates (direct lattice) 
   0.00000000  0.00000000  0.00000000
   0.49999905  0.49999905  0.49999905
 
 position of ions in cartesian coordinates  (Angst):
   0.00000000  0.00000000  0.00000000
   1.41665980  1.41665980  1.41665980
 


--------------------------------------------------------------------------------------------------------


 k-point  1 :   0.0000 0.0000 0.0000  plane waves:     847
 k-point  2 :   0.0625 0.0000 0.0000  plane waves:     863
 k-point  3 :   0.1250 0.0000 0.0000  plane waves:     844
 k-point  4 :   0.1875 0.0000 0.0000  plane waves:     856
 k-point  5 :   0.2500 0.0000 0.0000  plane waves:     852
 k-point  6 :   0.3125 0.0000 0.0000  plane waves:     856
 k-point  7 :   0.3750 0.0000 0.0000  plane waves:     864
 k-point  8 :   0.4375 0.0000 0.0000  plane waves:     856
 k-point  9 :   0.5000 0.0000 0.0000  plane waves:     852
 k-point 10 :   0.0625 0.0625 0.0000  plane waves:     855
 k-point 11 :   0.1250 0.0625 0.0000  plane waves:     857
 k-point 12 :   0.1875 0.0625 0.0000  plane waves:     852
 k-point 13 :   0.2500 0.0625 0.0000  plane waves:     848
 k-point 14 :   0.3125 0.0625 0.0000  plane waves:     851
 k-point 15 :   0.3750 0.0625 0.0000  plane waves:     851
 k-point 16 :   0.4375 0.0625 0.0000  plane waves:     846
 k-point 17 :   0.5000 0.0625 0.0000  plane waves:     848
 k-point 18 :   0.1250 0.1250 0.0000  plane waves:     857
 k-point 19 :   0.1875 0.1250 0.0000  plane waves:     851
 k-point 20 :   0.2500 0.1250 0.0000  plane waves:     847
 k-point 21 :   0.3125 0.1250 0.0000  plane waves:     852
 k-point 22 :   0.3750 0.1250 0.0000  plane waves:     850
 k-point 23 :   0.4375 0.1250 0.0000  plane waves:     847
 k-point 24 :   0.5000 0.1250 0.0000  plane waves:     842
 k-point 25 :   0.1875 0.1875 0.0000  plane waves:     852
 k-point 26 :   0.2500 0.1875 0.0000  plane waves:     848
 k-point 27 :   0.3125 0.1875 0.0000  plane waves:     854
 k-point 28 :   0.3750 0.1875 0.0000  plane waves:     852
 k-point 29 :   0.4375 0.1875 0.0000  plane waves:     852
 k-point 30 :   0.5000 0.1875 0.0000  plane waves:     856
 k-point 31 :   0.2500 0.2500 0.0000  plane waves:     868
 k-point 32 :   0.3125 0.2500 0.0000  plane waves:     863
 k-point 33 :   0.3750 0.2500 0.0000  plane waves:     858
 k-point 34 :   0.4375 0.2500 0.0000  plane waves:     855
 k-point 35 :   0.5000 0.2500 0.0000  plane waves:     854
 k-point 36 :   0.3125 0.3125 0.0000  plane waves:     852
 k-point 37 :   0.3750 0.3125 0.0000  plane waves:     855
 k-point 38 :   0.4375 0.3125 0.0000  plane waves:     856
 k-point 39 :   0.5000 0.3125 0.0000  plane waves:     854
 k-point 40 :   0.3750 0.3750 0.0000  plane waves:     856
 k-point 41 :   0.4375 0.3750 0.0000  plane waves:     850
 k-point 42 :   0.5000 0.3750 0.0000  plane waves:     860
 k-point 43 :   0.4375 0.4375 0.0000  plane waves:     864
 k-point 44 :   0.5000 0.4375 0.0000  plane waves:     860
 k-point 45 :   0.5000 0.5000 0.0000  plane waves:     872
 k-point 46 :   0.0625 0.0625 0.0625  plane waves:     856
 k-point 47 :   0.1250 0.0625 0.0625  plane waves:     853
 k-point 48 :   0.1875 0.0625 0.0625  plane waves:     852
 k-point 49 :   0.2500 0.0625 0.0625  plane waves:     847
 k-point 50 :   0.3125 0.0625 0.0625  plane waves:     846
 k-point 51 :   0.3750 0.0625 0.0625  plane waves:     854
 k-point 52 :   0.4375 0.0625 0.0625  plane waves:     850
 k-point 53 :   0.5000 0.0625 0.0625  plane waves:     850
 k-point 54 :   0.1250 0.1250 0.0625  plane waves:     855
 k-point 55 :   0.1875 0.1250 0.0625  plane waves:     850
 k-point 56 :   0.2500 0.1250 0.0625  plane waves:     847
 k-point 57 :   0.3125 0.1250 0.0625  plane waves:     852
 k-point 58 :   0.3750 0.1250 0.0625  plane waves:     854
 k-point 59 :   0.4375 0.1250 0.0625  plane waves:     850
 k-point 60 :   0.5000 0.1250 0.0625  plane waves:     850
 k-point 61 :   0.1875 0.1875 0.0625  plane waves:     849
 k-point 62 :   0.2500 0.1875 0.0625  plane waves:     856
 k-point 63 :   0.3125 0.1875 0.0625  plane waves:     855
 k-point 64 :   0.3750 0.1875 0.0625  plane waves:     856
 k-point 65 :   0.4375 0.1875 0.0625  plane waves:     851
 k-point 66 :   0.5000 0.1875 0.0625  plane waves:     856
 k-point 67 :   0.2500 0.2500 0.0625  plane waves:     859
 k-point 68 :   0.3125 0.2500 0.0625  plane waves:     859
 k-point 69 :   0.3750 0.2500 0.0625  plane waves:     855
 k-point 70 :   0.4375 0.2500 0.0625  plane waves:     856
 k-point 71 :   0.5000 0.2500 0.0625  plane waves:     854
 k-point 72 :   0.3125 0.3125 0.0625  plane waves:     858
 k-point 73 :   0.3750 0.3125 0.0625  plane waves:     855
 k-point 74 :   0.4375 0.3125 0.0625  plane waves:     855
 k-point 75 :   0.5000 0.3125 0.0625  plane waves:     854
 k-point 76 :   0.3750 0.3750 0.0625  plane waves:     856
 k-point 77 :   0.4375 0.3750 0.0625  plane waves:     850
 k-point 78 :   0.5000 0.3750 0.0625  plane waves:     854
 k-point 79 :   0.4375 0.4375 0.0625  plane waves:     857
 k-point 80 :   0.5000 0.4375 0.0625  plane waves:     860
 k-point 81 :   0.5000 0.5000 0.0625  plane waves:     856
 k-point 82 :   0.1250 0.1250 0.1250  plane waves:     850
 k-point 83 :   0.1875 0.1250 0.1250  plane waves:     845
 k-point 84 :   0.2500 0.1250 0.1250  plane waves:     853
 k-point 85 :   0.3125 0.1250 0.1250  plane waves:     851
 k-point 86 :   0.3750 0.1250 0.1250  plane waves:     862
 k-point 87 :   0.4375 0.1250 0.1250  plane waves:     852
 k-point 88 :   0.5000 0.1250 0.1250  plane waves:     854
 k-point 89 :   0.1875 0.1875 0.1250  plane waves:     850
 k-point 90 :   0.2500 0.1875 0.1250  plane waves:     857
 k-point 91 :   0.3125 0.1875 0.1250  plane waves:     858
 k-point 92 :   0.3750 0.1875 0.1250  plane waves:     856
 k-point 93 :   0.4375 0.1875 0.1250  plane waves:     854
 k-point 94 :   0.5000 0.1875 0.1250  plane waves:     848
 k-point 95 :   0.2500 0.2500 0.1250  plane waves:     862
 k-point 96 :   0.3125 0.2500 0.1250  plane waves:     857
 k-point 97 :   0.3750 0.2500 0.1250  plane waves:     852
 k-point 98 :   0.4375 0.2500 0.1250  plane waves:     856
 k-point 99 :   0.5000 0.2500 0.1250  plane waves:     856
 k-point ** :   0.3125 0.3125 0.1250  plane waves:     859
 k-point ** :   0.3750 0.3125 0.1250  plane waves:     856
 k-point ** :   0.4375 0.3125 0.1250  plane waves:     853
 k-point ** :   0.5000 0.3125 0.1250  plane waves:     856
 k-point ** :   0.3750 0.3750 0.1250  plane waves:     857
 k-point ** :   0.4375 0.3750 0.1250  plane waves:     851
 k-point ** :   0.5000 0.3750 0.1250  plane waves:     856
 k-point ** :   0.4375 0.4375 0.1250  plane waves:     855
 k-point ** :   0.5000 0.4375 0.1250  plane waves:     854
 k-point ** :   0.5000 0.5000 0.1250  plane waves:     848
 k-point ** :   0.1875 0.1875 0.1875  plane waves:     844
 k-point ** :   0.2500 0.1875 0.1875  plane waves:     852
 k-point ** :   0.3125 0.1875 0.1875  plane waves:     857
 k-point ** :   0.3750 0.1875 0.1875  plane waves:     856
 k-point ** :   0.4375 0.1875 0.1875  plane waves:     858
 k-point ** :   0.5000 0.1875 0.1875  plane waves:     852
 k-point ** :   0.2500 0.2500 0.1875  plane waves:     858
 k-point ** :   0.3125 0.2500 0.1875  plane waves:     858
 k-point ** :   0.3750 0.2500 0.1875  plane waves:     863
 k-point ** :   0.4375 0.2500 0.1875  plane waves:     859
 k-point ** :   0.5000 0.2500 0.1875  plane waves:     852
 k-point ** :   0.3125 0.3125 0.1875  plane waves:     858
 k-point ** :   0.3750 0.3125 0.1875  plane waves:     859
 k-point ** :   0.4375 0.3125 0.1875  plane waves:     856
 k-point ** :   0.5000 0.3125 0.1875  plane waves:     858
 k-point ** :   0.3750 0.3750 0.1875  plane waves:     858
 k-point ** :   0.4375 0.3750 0.1875  plane waves:     858
 k-point ** :   0.5000 0.3750 0.1875  plane waves:     854
 k-point ** :   0.4375 0.4375 0.1875  plane waves:     861
 k-point ** :   0.5000 0.4375 0.1875  plane waves:     858
 k-point ** :   0.5000 0.5000 0.1875  plane waves:     860
 k-point ** :   0.2500 0.2500 0.2500  plane waves:     859
 k-point ** :   0.3125 0.2500 0.2500  plane waves:     853
 k-point ** :   0.3750 0.2500 0.2500  plane waves:     853
 k-point ** :   0.4375 0.2500 0.2500  plane waves:     853
 k-point ** :   0.5000 0.2500 0.2500  plane waves:     850
 k-point ** :   0.3125 0.3125 0.2500  plane waves:     859
 k-point ** :   0.3750 0.3125 0.2500  plane waves:     854
 k-point ** :   0.4375 0.3125 0.2500  plane waves:     855
 k-point ** :   0.5000 0.3125 0.2500  plane waves:     856
 k-point ** :   0.3750 0.3750 0.2500  plane waves:     860
 k-point ** :   0.4375 0.3750 0.2500  plane waves:     861
 k-point ** :   0.5000 0.3750 0.2500  plane waves:     858
 k-point ** :   0.4375 0.4375 0.2500  plane waves:     860
 k-point ** :   0.5000 0.4375 0.2500  plane waves:     864
 k-point ** :   0.5000 0.5000 0.2500  plane waves:     864
 k-point ** :   0.3125 0.3125 0.3125  plane waves:     862
 k-point ** :   0.3750 0.3125 0.3125  plane waves:     856
 k-point ** :   0.4375 0.3125 0.3125  plane waves:     861
 k-point ** :   0.5000 0.3125 0.3125  plane waves:     858
 k-point ** :   0.3750 0.3750 0.3125  plane waves:     866
 k-point ** :   0.4375 0.3750 0.3125  plane waves:     865
 k-point ** :   0.5000 0.3750 0.3125  plane waves:     868
 k-point ** :   0.4375 0.4375 0.3125  plane waves:     866
 k-point ** :   0.5000 0.4375 0.3125  plane waves:     868
 k-point ** :   0.5000 0.5000 0.3125  plane waves:     868
 k-point ** :   0.3750 0.3750 0.3750  plane waves:     874
 k-point ** :   0.4375 0.3750 0.3750  plane waves:     866
 k-point ** :   0.5000 0.3750 0.3750  plane waves:     870
 k-point ** :   0.4375 0.4375 0.3750  plane waves:     876
 k-point ** :   0.5000 0.4375 0.3750  plane waves:     874
 k-point ** :   0.5000 0.5000 0.3750  plane waves:     876
 k-point ** :   0.4375 0.4375 0.4375  plane waves:     870
 k-point ** :   0.5000 0.4375 0.4375  plane waves:     874
 k-point ** :   0.5000 0.5000 0.4375  plane waves:     876
 k-point ** :   0.5000 0.5000 0.5000  plane waves:     840

 maximum number of plane-waves:       876
 maximum index in each direction: 
   IXMAX=    5   IYMAX=    5   IZMAX=    5
   IXMIN=   -6   IYMIN=   -6   IZMIN=   -6

 NGX is ok and might be reduce to  24
 NGY is ok and might be reduce to  24
 NGZ is ok and might be reduce to  24

 total amount of memory used by VASP on root node   143896. kBytes
========================================================================

   base      :      30000. kBytes
   nonl-proj :      41655. kBytes
   grid      :      10266. kBytes
   one-center:         62. kBytes
   wavefun   :      61913. kBytes
 
 Broyden mixing: mesh for mixing (old mesh)
   NGX = 11   NGY = 11   NGZ = 11
  (NGX  = 48   NGY  = 48   NGZ  = 48)
  gives a total of   1331 points

 initial charge density was supplied:
 number of electron      12.9999995 magnetization      -0.0000036
 keeping initial charge density in first step


--------------------------------------------------------------------------------------------------------


 Maximum index for augmentation-charges        22983 (set IRDMAX)


--------------------------------------------------------------------------------------------------------


 First call to EWALD:  gamma=   0.626
 Maximum number of real-space cells 3x 3x 3
 Maximum number of reciprocal cells 3x 3x 3

    FEWALD:  cpu time    0.00: real time    0.00


----------------------------------------- Iteration    1(   1)  ---------------------------------------


    POTLOK:  cpu time    0.07: real time    0.07
    SETDIJ:  cpu time    0.06: real time    0.06
     EDDAV:  cpu time   27.47: real time   27.48
 BZINTS: Fermi energy: 18.144486; 13.000000 electrons
         Band energy: 152.339162;  BLOECHL correction: -0.336563
       DOS:  cpu time    0.26: real time    0.26
    --------------------------------------------
      LOOP:  cpu time   27.86: real time   27.88

 eigenvalue-minimisations  :  8636
 total energy-change (2. order) : 0.4774220E+02  (-0.6542867E+03)
 number of electron      12.9999995 magnetization      -0.0000036
 augmentation part       12.9999995 magnetization      -0.0000036

 Free energy of the ion-electron system (eV)
  ---------------------------------------------------
  alpha Z        PSCENC =        27.62682081
  Ewald energy   TEWEN  =      -908.15892379
  -1/2 Hartree   DENC   =      -327.38436178
  -exchange  EXHF       =         0.00000000
  -V(xc)+E(xc)   XCENC  =         6.87742266
  PAW double counting   =      1407.41929622    -1446.56431001
  entropy T*S    EENTRO =         0.00000000
  eigenvalues    EBANDS =       152.33916210
  atomic energy  EATOM  =      1135.58709629
  ---------------------------------------------------
  free energy    TOTEN  =        47.74220249 eV

  energy without entropy =       47.74220249  energy(sigma->0) =       47.74220249


--------------------------------------------------------------------------------------------------------




----------------------------------------- Iteration    1(   2)  ---------------------------------------


     EDDAV:  cpu time   28.26: real time   28.28
 BZINTS: Fermi energy: 10.591565; 13.000000 electrons
         Band energy:  94.420912;  BLOECHL correction: -0.033871
       DOS:  cpu time    0.24: real time    0.24
    --------------------------------------------
      LOOP:  cpu time   28.50: real time   28.52

 eigenvalue-minimisations  :  8988
 total energy-change (2. order) :-0.5791825E+02  (-0.5362233E+02)
 number of electron      12.9999995 magnetization      -0.0000036
 augmentation part       12.9999995 magnetization      -0.0000036

 Free energy of the ion-electron system (eV)
  ---------------------------------------------------
  alpha Z        PSCENC =        27.62682081
  Ewald energy   TEWEN  =      -908.15892379
  -1/2 Hartree   DENC   =      -327.38436178
  -exchange  EXHF       =         0.00000000
  -V(xc)+E(xc)   XCENC  =         6.87742266
  PAW double counting   =      1407.41929622    -1446.56431001
  entropy T*S    EENTRO =         0.00000000
  eigenvalues    EBANDS =        94.42091169
  atomic energy  EATOM  =      1135.58709629
  ---------------------------------------------------
  free energy    TOTEN  =       -10.17604791 eV

  energy without entropy =      -10.17604791  energy(sigma->0) =      -10.17604791


--------------------------------------------------------------------------------------------------------




----------------------------------------- Iteration    1(   3)  ---------------------------------------


     EDDAV:  cpu time   32.04: real time   32.06
 BZINTS: Fermi energy: 10.443502; 13.000000 electrons
         Band energy:  92.425936;  BLOECHL correction: -0.032459
       DOS:  cpu time    0.25: real time    0.25
    --------------------------------------------
      LOOP:  cpu time   32.29: real time   32.31

 eigenvalue-minimisations  : 10441
 total energy-change (2. order) :-0.1994976E+01  (-0.1982463E+01)
 number of electron      12.9999995 magnetization      -0.0000036
 augmentation part       12.9999995 magnetization      -0.0000036

 Free energy of the ion-electron system (eV)
  ---------------------------------------------------
  alpha Z        PSCENC =        27.62682081
  Ewald energy   TEWEN  =      -908.15892379
  -1/2 Hartree   DENC   =      -327.38436178
  -exchange  EXHF       =         0.00000000
  -V(xc)+E(xc)   XCENC  =         6.87742266
  PAW double counting   =      1407.41929622    -1446.56431001
  entropy T*S    EENTRO =         0.00000000
  eigenvalues    EBANDS =        92.42593554
  atomic energy  EATOM  =      1135.58709629
  ---------------------------------------------------
  free energy    TOTEN  =       -12.17102406 eV

  energy without entropy =      -12.17102406  energy(sigma->0) =      -12.17102406


--------------------------------------------------------------------------------------------------------




----------------------------------------- Iteration    1(   4)  ---------------------------------------


     EDDAV:  cpu time   31.39: real time   31.40
 BZINTS: Fermi energy: 10.441503; 13.000000 electrons
         Band energy:  92.400896;  BLOECHL correction: -0.032437
       DOS:  cpu time    0.24: real time    0.24
    --------------------------------------------
      LOOP:  cpu time   31.63: real time   31.65

 eigenvalue-minimisations  :  9897
 total energy-change (2. order) :-0.2503977E-01  (-0.2503131E-01)
 number of electron      12.9999995 magnetization      -0.0000036
 augmentation part       12.9999995 magnetization      -0.0000036

 Free energy of the ion-electron system (eV)
  ---------------------------------------------------
  alpha Z        PSCENC =        27.62682081
  Ewald energy   TEWEN  =      -908.15892379
  -1/2 Hartree   DENC   =      -327.38436178
  -exchange  EXHF       =         0.00000000
  -V(xc)+E(xc)   XCENC  =         6.87742266
  PAW double counting   =      1407.41929622    -1446.56431001
  entropy T*S    EENTRO =         0.00000000
  eigenvalues    EBANDS =        92.40089577
  atomic energy  EATOM  =      1135.58709629
  ---------------------------------------------------
  free energy    TOTEN  =       -12.19606383 eV

  energy without entropy =      -12.19606383  energy(sigma->0) =      -12.19606383


--------------------------------------------------------------------------------------------------------




----------------------------------------- Iteration    1(   5)  ---------------------------------------


     EDDAV:  cpu time   32.79: real time   32.80
 BZINTS: Fermi energy: 10.441456; 13.000000 electrons
         Band energy:  92.400248;  BLOECHL correction: -0.032437
       DOS:  cpu time    0.24: real time    0.24
    CHARGE:  cpu time    1.77: real time    1.77
    MIXING:  cpu time    0.01: real time    0.01
    --------------------------------------------
      LOOP:  cpu time   34.80: real time   34.83

 eigenvalue-minimisations  : 10503
 total energy-change (2. order) :-0.6482567E-03  (-0.6482356E-03)
 number of electron      12.9999995 magnetization       0.0000024
 augmentation part        6.1380767 magnetization       0.0000079

 Broyden mixing:
  rms(total) = 0.14576E-02    rms(broyden)= 0.14565E-02
  rms(prec ) = 0.38622E-02
  weight for this iteration     100.00

 Free energy of the ion-electron system (eV)
  ---------------------------------------------------
  alpha Z        PSCENC =        27.62682081
  Ewald energy   TEWEN  =      -908.15892379
  -1/2 Hartree   DENC   =      -327.38436178
  -exchange  EXHF       =         0.00000000
  -V(xc)+E(xc)   XCENC  =         6.87742266
  PAW double counting   =      1407.41929622    -1446.56431001
  entropy T*S    EENTRO =         0.00000000
  eigenvalues    EBANDS =        92.40024752
  atomic energy  EATOM  =      1135.58709629
  ---------------------------------------------------
  free energy    TOTEN  =       -12.19671209 eV

  energy without entropy =      -12.19671209  energy(sigma->0) =      -12.19671209


--------------------------------------------------------------------------------------------------------




----------------------------------------- Iteration    1(   6)  ---------------------------------------


    POTLOK:  cpu time    0.07: real time    0.07
    SETDIJ:  cpu time    0.06: real time    0.06
     EDDAV:  cpu time   31.31: real time   31.33
 BZINTS: Fermi energy: 10.435948; 13.000000 electrons
         Band energy:  92.351921;  BLOECHL correction: -0.032522
       DOS:  cpu time    0.25: real time    0.25
    --------------------------------------------
      LOOP:  cpu time   31.69: real time   31.71

 eigenvalue-minimisations  :  9874
 total energy-change (2. order) : 0.1520406E-04  (-0.3790314E-04)
 number of electron      12.9999995 magnetization       0.0000024
 augmentation part        6.1380767 magnetization       0.0000079

 Free energy of the ion-electron system (eV)
  ---------------------------------------------------
  alpha Z        PSCENC =        27.62682081
  Ewald energy   TEWEN  =      -908.15892379
  -1/2 Hartree   DENC   =      -327.34057213
  -exchange  EXHF       =         0.00000000
  -V(xc)+E(xc)   XCENC  =         6.87549920
  PAW double counting   =      1407.65045262    -1446.78899136
  entropy T*S    EENTRO =         0.00000000
  eigenvalues    EBANDS =        92.35192149
  atomic energy  EATOM  =      1135.58709629
  ---------------------------------------------------
  free energy    TOTEN  =       -12.19669689 eV

  energy without entropy =      -12.19669689  energy(sigma->0) =      -12.19669689


--------------------------------------------------------------------------------------------------------




 average (electrostatic) potential at core
  the test charge radii are     1.0406  0.9791
  (the norm of the test charge is              1.0000)
       1 -67.6537       2 -80.9684
 
 
 
 E-fermi :  10.4359     XC(G=0): -12.5460     alpha+bet :-18.5458


 spin component 1

 k-point   1 :       0.0000    0.0000    0.0000
  band No.  band energies     occupation 
      1      -1.0261      1.00000
      2       6.9319      1.00000
      3       6.9319      1.00000
      4       8.7542      1.00000
      5       8.7542      1.00000
      6       8.7542      1.00000
      7      16.1100      0.00000
      8      16.1100      0.00000
      9      16.1100      0.00000
     10      18.8103      0.00000
     11      18.8103      0.00000
     12      24.9037      0.00000
     13      31.8157      0.00000

 k-point   2 :       0.0625    0.0000    0.0000
  band No.  band energies     occupation 
      1      -0.9516      1.00000
      2       6.9286      1.00000
      3       6.9500      1.00000
      4       8.7205      1.00000
      5       8.7205      1.00000
      6       8.7578      1.00000
      7      15.3063      0.00000
      8      16.2085      0.00000
      9      16.2085      0.00000
     10      18.8114      0.00000
     11      19.5461      0.00000
     12      25.1529      0.00000
     13      30.9628      0.00000

 k-point   3 :       0.1250    0.0000    0.0000
  band No.  band energies     occupation 
      1      -0.7290      1.00000
      2       6.9050      1.00000
      3       7.0019      1.00000
      4       8.6275      1.00000
      5       8.6275      1.00000
      6       8.7683      1.00000
      7      13.8961      0.00000
      8      16.4966      0.00000
      9      16.4966      0.00000
     10      18.8150      0.00000
     11      20.7212      0.00000
     12      25.9397      0.00000
     13      29.4552      0.00000

 k-point   4 :       0.1875    0.0000    0.0000
  band No.  band energies     occupation 
      1      -0.3611      1.00000
      2       6.8153      1.00000
      3       7.0809      1.00000
      4       8.4951      1.00000
      5       8.4951      1.00000
      6       8.7839      1.00000
      7      12.5018      0.00000
      8      16.9551      0.00000
      9      16.9551      0.00000
     10      18.8205      0.00000
     11      21.7190      0.00000
     12      27.2835      0.00000
     13      27.8971      0.00000

 k-point   5 :       0.2500    0.0000    0.0000
  band No.  band energies     occupation 
      1       0.1475      1.00000
      2       6.5739      1.00000
      3       7.1764      1.00000
      4       8.3484      1.00000
      5       8.3484      1.00000
      6       8.8024      1.00000
[...]
     11      16.9927      0.00000
     12      19.5405      0.00000
     13      22.3961      0.00000

 k-point 153 :       0.4375    0.4375    0.3125
  band No.  band energies     occupation 
      1       5.4646      1.00000
      2       6.3413      1.00000
      3       6.3659      1.00000
      4       8.3785      1.00000
      5       9.1122      1.00000
      6       9.8307      1.03372
      7      11.0468     -0.05778
      8      12.7637      0.00000
      9      14.2940      0.00000
     10      16.3282      0.00000
     11      17.8456      0.00000
     12      18.4745      0.00000
     13      21.7920      0.00000

 k-point 154 :       0.5000    0.4375    0.3125
  band No.  band energies     occupation 
      1       5.5752      1.00000
      2       6.2904      1.00000
      3       6.3557      1.00000
      4       8.3858      1.00000
      5       9.1968      1.00000
      6      10.4347      0.72920
      7      10.5711      0.15224
      8      12.7435      0.00000
      9      13.8810      0.00000
     10      16.7780      0.00000
     11      17.4735      0.00000
     12      18.5033      0.00000
     13      21.3528      0.00000

 k-point 155 :       0.5000    0.5000    0.3125
  band No.  band energies     occupation 
      1       5.6534      1.00000
      2       6.3077      1.00000
      3       6.3077      1.00000
      4       8.3929      1.00000
      5       9.3442      1.00000
      6      10.7272      0.24523
      7      10.7272      0.04054
      8      12.1905      0.00000
      9      13.5947      0.00000
     10      17.4116      0.00000
     11      17.7369      0.00000
     12      17.7369      0.00000
     13      20.9142      0.00000

 k-point 156 :       0.3750    0.3750    0.3750
  band No.  band energies     occupation 
      1       5.1778      1.00000
      2       6.4200      1.00000
      3       6.4200      1.00000
      4       8.7462      1.00000
      5       8.7462      1.00000
      6       9.1027      1.01120
      7      12.4168      0.00000
      8      12.4168      0.00000
      9      14.5292      0.00000
     10      16.9114      0.00000
     11      16.9114      0.00000
     12      18.2152      0.00000
     13      22.5174      0.00000

 k-point 157 :       0.4375    0.3750    0.3750
  band No.  band energies     occupation 
      1       5.4752      1.00000
      2       6.2869      1.00000
      3       6.3510      1.00000
      4       8.7710      1.00000
      5       8.8868      1.00000
      6       9.7508      1.03480
      7      11.5370     -0.02591
      8      13.1389      0.00000
      9      14.6607      0.00000
     10      15.8529      0.00000
     11      16.6589      0.00000
     12      18.1716      0.00000
     13      21.4990      0.00000

 k-point 158 :       0.5000    0.3750    0.3750
  band No.  band energies     occupation 
      1       5.6118      1.00000
      2       6.2085      1.00000
      3       6.3277      1.00000
      4       8.7792      1.00000
      5       8.9187      1.00000
      6      10.4528      0.70414
      7      10.7460      0.00990
      8      13.5598      0.00000
      9      14.8171      0.00000
     10      15.3203      0.00000
     11      16.3683      0.00000
     12      18.3702      0.00000
     13      21.0629      0.00000

 k-point 159 :       0.4375    0.4375    0.3750
  band No.  band energies     occupation 
      1       5.6935      1.00000
      2       6.2388      1.00000
      3       6.2426      1.00000
      4       8.8432      1.00000
      5       9.1478      1.00000
      6      10.3135      0.62613
      7      11.7370     -0.00701
      8      12.7642      0.00000
      9      14.4283      0.00000
     10      15.6248      0.00000
     11      16.6148      0.00000
     12      17.4112      0.00000
     13      20.4851      0.00000

 k-point 160 :       0.5000    0.4375    0.3750
  band No.  band energies     occupation 
      1       5.7900      1.00000
      2       6.1854      1.00000
      3       6.2228      1.00000
      4       8.8557      1.00000
      5       9.2316      1.00000
      6      10.9653     -0.01778
      7      11.2184     -0.00369
      8      12.8656      0.00000
      9      14.1763      0.00000
     10      15.7397      0.00000
     11      16.3920      0.00000
     12      17.3415      0.00000
     13      20.0608      0.00000

 k-point 161 :       0.5000    0.5000    0.3750
  band No.  band energies     occupation 
      1       5.8655      1.00000
      2       6.1759      1.00000
      3       6.1759      1.00000
      4       8.8693      1.00000
      5       9.3495      1.00000
      6      11.4398     -0.07322
      7      11.4398      0.00000
      8      12.2841      0.00000
      9      13.8529      0.00000
     10      16.4001      0.00000
     11      16.5194      0.00000
     12      16.5194      0.00000
     13      19.6535      0.00000

 k-point 162 :       0.4375    0.4375    0.4375
  band No.  band energies     occupation 
      1       5.8697      1.00000
      2       6.1618      1.00000
      3       6.1618      1.00000
      4       9.1657      1.00000
      5       9.1657      1.00000
      6      10.9342      0.02218
      7      12.4030      0.00000
      8      12.4030      0.00000
      9      14.3545      0.00000
     10      15.6283      0.00000
     11      15.6283      0.00000
     12      16.6443      0.00000
     13      19.5226      0.00000

 k-point 163 :       0.5000    0.4375    0.4375
  band No.  band energies     occupation 
      1       5.9479      1.00000
      2       6.1190      1.00000
      3       6.1360      1.00000
      4       9.1713      1.00000
      5       9.2754      1.00000
      6      11.5715     -0.03812
      7      11.8093      0.00000
      8      12.7424      0.00000
      9      14.3534      0.00000
     10      15.1826      0.00000
     11      15.7403      0.00000
     12      16.3517      0.00000
     13      19.1411      0.00000

 k-point 164 :       0.5000    0.5000    0.4375
  band No.  band energies     occupation 
      1       6.0154      1.00000
      2       6.0964      1.00000
      3       6.0964      1.00000
      4       9.2225      1.00000
      5       9.3529      1.00000
      6      12.0970     -0.00282
      7      12.0970      0.00000
      8      12.3751      0.00000
      9      14.1964      0.00000
     10      15.5591      0.00000
     11      15.5591      0.00000
     12      15.5802      0.00000
     13      18.7924      0.00000

 k-point 165 :       0.5000    0.5000    0.5000
  band No.  band energies     occupation 
      1       6.0698      1.00000
      2       6.0698      1.00000
      3       6.0698      1.00000
      4       9.3542      1.00000
      5       9.3542      1.00000
      6      12.4163      0.00000
      7      12.4163      0.00000
      8      12.4163      0.00000
      9      14.4743      0.00000
     10      15.1387      0.00000
     11      15.1387      0.00000
     12      15.1387      0.00000
     13      18.4802      0.00000


--------------------------------------------------------------------------------------------------------


 soft charge-density along one line, spin component           1
         0         1         2         3         4         5         6         7         8         9
x     6.8619    0.0000   -0.8085    0.0000   -0.2372    0.0000    0.0997    0.0000    0.0041    0.0000
x    -0.0101    0.0000    0.0012    0.0000    0.0001    0.0000    0.0000    0.0000    0.0000    0.0000
x     0.0000    0.0000    0.0000    0.0000    0.0000    0.0000
y     6.8619    0.0000   -0.8085    0.0000   -0.2372    0.0000    0.0997    0.0000    0.0041    0.0000
y    -0.0101    0.0000    0.0012    0.0000    0.0001    0.0000    0.0000    0.0000    0.0000    0.0000
y     0.0000    0.0000    0.0000    0.0000    0.0000    0.0000
z     6.8619    0.0000   -0.8085    0.0000   -0.2372    0.0000    0.0997    0.0000    0.0041    0.0000
z    -0.0101    0.0000    0.0012    0.0000    0.0001    0.0000    0.0000    0.0000    0.0000    0.0000
z     0.0000    0.0000    0.0000    0.0000    0.0000    0.0000
 total charge-density along one line
x    13.0000    0.0000   -5.9445    0.0000    2.5345    0.0000   -0.7799    0.0000    0.0782    0.0000
x     0.0196    0.0000    0.0039    0.0000   -0.0018    0.0000   -0.0017    0.0000   -0.0006    0.0000
x     0.0002    0.0000    0.0003    0.0000    0.0002    0.0000    0.0000    0.0000   -0.0001    0.0000
x    -0.0001    0.0000    0.0000    0.0000    0.0000    0.0000    0.0000    0.0000    0.0000    0.0000
x     0.0000    0.0000    0.0000    0.0000    0.0000    0.0000    0.0000    0.0000    0.0000    0.0000
y    13.0000    0.0000   -5.9445    0.0000    2.5345    0.0000   -0.7799    0.0000    0.0782    0.0000
y     0.0196    0.0000    0.0039    0.0000   -0.0018    0.0000   -0.0017    0.0000   -0.0006    0.0000
y     0.0002    0.0000    0.0003    0.0000    0.0002    0.0000    0.0000    0.0000   -0.0001    0.0000
y    -0.0001    0.0000    0.0000    0.0000    0.0000    0.0000    0.0000    0.0000    0.0000    0.0000
y     0.0000    0.0000    0.0000    0.0000    0.0000    0.0000    0.0000    0.0000    0.0000    0.0000
z    13.0000    0.0000   -5.9445    0.0000    2.5345    0.0000   -0.7799    0.0000    0.0782    0.0000
z     0.0196    0.0000    0.0039    0.0000   -0.0018    0.0000   -0.0017    0.0000   -0.0006    0.0000
z     0.0002    0.0000    0.0003    0.0000    0.0002    0.0000    0.0000    0.0000   -0.0001    0.0000
z    -0.0001    0.0000    0.0000    0.0000    0.0000    0.0000    0.0000    0.0000    0.0000    0.0000
z     0.0000    0.0000    0.0000    0.0000    0.0000    0.0000    0.0000    0.0000    0.0000    0.0000
 
 soft charge-density along one line, spin component           2
         0         1         2         3         4         5         6         7         8         9
x     0.0000    0.0000    0.0000    0.0000    0.0000    0.0000    0.0000    0.0000    0.0000    0.0000
x     0.0000    0.0000    0.0000    0.0000    0.0000    0.0000    0.0000    0.0000    0.0000    0.0000
x     0.0000    0.0000    0.0000    0.0000    0.0000    0.0000
y     0.0000    0.0000    0.0000    0.0000    0.0000    0.0000    0.0000    0.0000    0.0000    0.0000
y     0.0000    0.0000    0.0000    0.0000    0.0000    0.0000    0.0000    0.0000    0.0000    0.0000
y     0.0000    0.0000    0.0000    0.0000    0.0000    0.0000
z     0.0000    0.0000    0.0000    0.0000    0.0000    0.0000    0.0000    0.0000    0.0000    0.0000
z     0.0000    0.0000    0.0000    0.0000    0.0000    0.0000    0.0000    0.0000    0.0000    0.0000
z     0.0000    0.0000    0.0000    0.0000    0.0000    0.0000
 total charge-density along one line
x     0.0000    0.0000    0.0000    0.0000    0.0000    0.0000    0.0000    0.0000    0.0000    0.0000
x     0.0000    0.0000    0.0000    0.0000    0.0000    0.0000    0.0000    0.0000    0.0000    0.0000
x     0.0000    0.0000    0.0000    0.0000    0.0000    0.0000    0.0000    0.0000    0.0000    0.0000
x     0.0000    0.0000    0.0000    0.0000    0.0000    0.0000    0.0000    0.0000    0.0000    0.0000
x     0.0000    0.0000    0.0000    0.0000    0.0000    0.0000    0.0000    0.0000    0.0000    0.0000
y     0.0000    0.0000    0.0000    0.0000    0.0000    0.0000    0.0000    0.0000    0.0000    0.0000
y     0.0000    0.0000    0.0000    0.0000    0.0000    0.0000    0.0000    0.0000    0.0000    0.0000
y     0.0000    0.0000    0.0000    0.0000    0.0000    0.0000    0.0000    0.0000    0.0000    0.0000
y     0.0000    0.0000    0.0000    0.0000    0.0000    0.0000    0.0000    0.0000    0.0000    0.0000
y     0.0000    0.0000    0.0000    0.0000    0.0000    0.0000    0.0000    0.0000    0.0000    0.0000
z     0.0000    0.0000    0.0000    0.0000    0.0000    0.0000    0.0000    0.0000    0.0000    0.0000
z     0.0000    0.0000    0.0000    0.0000    0.0000    0.0000    0.0000    0.0000    0.0000    0.0000
z     0.0000    0.0000    0.0000    0.0000    0.0000    0.0000    0.0000    0.0000    0.0000    0.0000
z     0.0000    0.0000    0.0000    0.0000    0.0000    0.0000    0.0000    0.0000    0.0000    0.0000
z     0.0000    0.0000    0.0000    0.0000    0.0000    0.0000    0.0000    0.0000    0.0000    0.0000
 
 pseudopotential strength for first ion, spin component:           1
  8.914  15.028   0.000   0.000   0.000   0.000   0.000   0.000
 15.028  25.334   0.000   0.000   0.000   0.000   0.000   0.000
  0.000   0.000   2.119   0.000   0.000   6.011   0.000   0.000
  0.000   0.000   0.000   2.119   0.000   0.000   6.011   0.000
  0.000   0.000   0.000   0.000   2.119   0.000   0.000   6.011
  0.000   0.000   6.011   0.000   0.000  16.992   0.000   0.000
  0.000   0.000   0.000   6.011   0.000   0.000  16.992   0.000
  0.000   0.000   0.000   0.000   6.011   0.000   0.000  16.992
 pseudopotential strength for first ion, spin component:           2
  8.914  15.028   0.000   0.000   0.000   0.000   0.000   0.000
 15.028  25.334   0.000   0.000   0.000   0.000   0.000   0.000
  0.000   0.000   2.119   0.000   0.000   6.011   0.000   0.000
  0.000   0.000   0.000   2.119   0.000   0.000   6.011   0.000
  0.000   0.000   0.000   0.000   2.119   0.000   0.000   6.011
  0.000   0.000   6.011   0.000   0.000  16.992   0.000   0.000
  0.000   0.000   0.000   6.011   0.000   0.000  16.992   0.000
  0.000   0.000   0.000   0.000   6.011   0.000   0.000  16.992
 total augmentation occupancy for first ion, spin component:           1
  4.676  -1.432   0.000   0.000   0.000   0.000   0.000   0.000
 -1.432   0.457   0.000   0.000   0.000   0.000   0.000   0.000
  0.000   0.000   1.475   0.000   0.000  -0.107   0.000   0.000
  0.000   0.000   0.000   1.475   0.000   0.000  -0.107   0.000
  0.000   0.000   0.000   0.000   1.475   0.000   0.000  -0.107
  0.000   0.000  -0.107   0.000   0.000   0.008   0.000   0.000
  0.000   0.000   0.000  -0.107   0.000   0.000   0.008   0.000
  0.000   0.000   0.000   0.000  -0.107   0.000   0.000   0.008
 total augmentation occupancy for first ion, spin component:           2
  0.000   0.000   0.000   0.000   0.000   0.000   0.000   0.000
  0.000   0.000   0.000   0.000   0.000   0.000   0.000   0.000
  0.000   0.000   0.000   0.000   0.000   0.000   0.000   0.000
  0.000   0.000   0.000   0.000   0.000   0.000   0.000   0.000
  0.000   0.000   0.000   0.000   0.000   0.000   0.000   0.000
  0.000   0.000   0.000   0.000   0.000   0.000   0.000   0.000
  0.000   0.000   0.000   0.000   0.000   0.000   0.000   0.000
  0.000   0.000   0.000   0.000   0.000   0.000   0.000   0.000


------------------------ aborting loop because EDIFF is reached ----------------------------------------


    CHARGE:  cpu time    1.78: real time    1.78
    FORLOC:  cpu time    0.01: real time    0.01
    FORNL :  cpu time    1.97: real time    1.97
    STRESS:  cpu time    4.60: real time    4.60
    FORCOR:  cpu time    0.07: real time    0.07
    FORHAR:  cpu time    0.04: real time    0.04
    MIXING:  cpu time    0.01: real time    0.01
    FORVDW:  cpu time    0.00: real time    0.00

  FORCE on cell =-STRESS in cart. coord.  units (eV):
  Direction    XX          YY          ZZ          XY          YZ          ZX
  --------------------------------------------------------------------------------------
  Alpha Z    27.62682    27.62682    27.62682
  Ewald    -302.71963  -302.71963  -302.71963     0.00000     0.00000     0.00000
  Hartree   109.16977   109.16977   109.16977     0.00000     0.00000     0.00000
  E(xc)     -64.60011   -64.60011   -64.60011     0.00000     0.00000     0.00000
  Local     -50.78568   -50.78568   -50.78568     0.00000     0.00000     0.00000
  n-local    10.62202     9.38966    12.53422     1.58427     1.55181     1.02871
  augment   172.15453   172.15453   172.15453     0.00000     0.00000     0.00000
  Kinetic   108.90764    97.43886    89.12243    -0.37380     1.81597     0.53679
  Fock        0.00000     0.00000     0.00000     0.00000     0.00000     0.00000
  -------------------------------------------------------------------------------------
  Total       0.18399     0.18399     0.18399     0.00000     0.00000     0.00000
  in kB      12.96023    12.96023    12.96023     0.00000     0.00000     0.00000
  external pressure =       12.96 kB  Pullay stress =        0.00 kB


 VOLUME and BASIS-vectors are now :
 -----------------------------------------------------------------------------
  energy-cutoff  :      650.00
  volume of cell :       22.75
      direct lattice vectors                 reciprocal lattice vectors
     2.833325000  0.000000000  0.000000000     0.352942215  0.000000000  0.000000000
     0.000000000  2.833325000  0.000000000     0.000000000  0.352942215  0.000000000
     0.000000000  0.000000000  2.833325000     0.000000000  0.000000000  0.352942215

  length of vectors
     2.833325000  2.833325000  2.833325000     0.352942215  0.352942215  0.352942215


 FORCES acting on ions
    electron-ion (+dipol)            ewald-force                    non-local-force                 convergence-correction
 -----------------------------------------------------------------------------------------------
   0.133E-03 0.133E-03 0.133E-03   -.215E-03 -.215E-03 -.215E-03   0.000E+00 0.000E+00 0.000E+00   0.101E-04 0.101E-04 0.101E-04
   0.801E-04 0.801E-04 0.801E-04   0.215E-03 0.215E-03 0.215E-03   0.000E+00 0.000E+00 0.000E+00   -.260E-03 -.260E-03 -.260E-03
 -----------------------------------------------------------------------------------------------
   0.213E-03 0.213E-03 0.213E-03   0.963E-15 -.134E-14 -.138E-14   0.000E+00 0.000E+00 0.000E+00   -.250E-03 -.250E-03 -.250E-03
 
 
 POSITION                                       TOTAL-FORCE (eV/Angst)
 -----------------------------------------------------------------------------------
      0.00000      0.00000      0.00000         0.000000      0.000000      0.000000
      1.41666      1.41666      1.41666         0.000000      0.000000      0.000000
 -----------------------------------------------------------------------------------
    total drift:                               -0.000037     -0.000037     -0.000037


--------------------------------------------------------------------------------------------------------



  FREE ENERGIE OF THE ION-ELECTRON SYSTEM (eV)
  ---------------------------------------------------
  free  energy   TOTEN  =       -12.19669689 eV

  energy  without entropy=      -12.19669689  energy(sigma->0) =      -12.19669689
 


--------------------------------------------------------------------------------------------------------


    POTLOK:  cpu time    0.13: real time    0.13


--------------------------------------------------------------------------------------------------------


     LOOP+:  cpu time  195.94: real time  196.33
    4ORBIT:  cpu time    0.00: real time    0.00
 BZINTS: Fermi energy: 10.435948; 13.000000 electrons
         Band energy:  92.351921;  BLOECHL correction: -0.032522

 total amount of memory used by VASP on root node   143896. kBytes
========================================================================

   base      :      30000. kBytes
   nonl-proj :      41655. kBytes
   grid      :      10266. kBytes
   one-center:         62. kBytes
   wavefun   :      61913. kBytes
 
  
  
 General timing and accounting informations for this job:
 ========================================================
  
                  Total CPU time used (sec):      198.790
                            User time (sec):      197.756
                          System time (sec):        1.034
                         Elapsed time (sec):      199.930
  
                   Maximum memory used (kb):      259140.
                   Average memory used (kb):           0.
  
                          Minor page faults:         8887
                          Major page faults:            0
                 Voluntary context switches:          486
