unknown system                          
           1
     2.833325    0.000000    0.000000
     0.000000    2.833325    0.000000
     0.000000    0.000000    2.833325
   Al   Ni
   1   1
Direct configuration=     1
   0.00000000  0.00000000  0.00000000
   0.49999905  0.49999905  0.49999905
